<?xml version="1.0" encoding="ISO-8859-1"?>
<modeling>
 <generator>
  <i name="program" type="string">vasp </i>
  <i name="version" type="string">5.4.1  </i>
  <i name="subversion" type="string">24Jun15 (build Dec 14 2015 09:35:58) complex                          parallel </i>
  <i name="platform" type="string">IFC91_ompi </i>
  <i name="date" type="string">2016 04 14 </i>
  <i name="time" type="string">21:04:12 </i>
 </generator>
 <incar>
  <i type="string" name="SYSTEM"> anatase</i>
  <i type="int" name="ISTART">     0</i>
  <i type="string" name="PREC">normal</i>
  <i type="string" name="ALGO"> Fast</i>
  <i type="int" name="ISPIN">     2</i>
  <i type="int" name="ICHARG">     2</i>
  <i type="int" name="NELM">    60</i>
  <i type="int" name="IBRION">    -1</i>
  <i name="EDIFF">      0.00001000</i>
  <i name="EDIFFG">     -0.05000000</i>
  <i type="int" name="NSW">     0</i>
  <i type="int" name="ISIF">     3</i>
  <i name="ENCUT">    400.00000000</i>
  <i type="int" name="NBANDS">    70</i>
  <i name="POTIM">      0.50000000</i>
  <i type="int" name="NEDOS">  1000</i>
  <i type="logical" name="LREAL"> F  </i>
  <i name="EMIN">    -20.00000000</i>
  <i name="EMAX">     20.00000000</i>
  <i type="int" name="ISMEAR">     0</i>
  <i name="SIGMA">      0.20000000</i>
  <i type="logical" name="LWAVE"> T  </i>
  <i type="logical" name="LCHARG"> T  </i>
  <v type="int" name="KPOINT_BSE">    -1     0     0     0</v>
  <i type="int" name="NELM">    60</i>
  <i type="logical" name="LDAU"> T  </i>
  <v type="int" name="LDAUTYPE">     2</v>
  <v type="int" name="LDAUL">     2    -1</v>
  <v name="LDAUU">      8.00000000      0.00000000</v>
  <v name="LDAUJ">      0.00000000      0.00000000</v>
  <i type="int" name="LDAUPRINT">     0</i>
 </incar>
 <kpoints>
  <generation param="Gamma">
   <v type="int" name="divisions">       3        3        4 </v>
   <v name="usershift">      0.00000000       0.00000000       0.00000000 </v>
   <v name="genvec1">      0.33333333       0.00000000       0.00000000 </v>
   <v name="genvec2">      0.00000000       0.33333333       0.00000000 </v>
   <v name="genvec3">      0.00000000       0.00000000       0.25000000 </v>
   <v name="shift">      0.00000000       0.00000000       0.00000000 </v>
  </generation>
  <varray name="kpointlist" >
   <v>       0.00000000       0.00000000       0.00000000 </v>
   <v>       0.33333333       0.00000000       0.00000000 </v>
   <v>       0.33333333       0.33333333       0.00000000 </v>
   <v>       0.00000000       0.00000000       0.25000000 </v>
   <v>       0.33333333       0.00000000       0.25000000 </v>
   <v>       0.33333333       0.33333333       0.25000000 </v>
   <v>       0.00000000       0.00000000       0.50000000 </v>
   <v>       0.33333333       0.00000000       0.50000000 </v>
   <v>       0.33333333       0.33333333       0.50000000 </v>
  </varray>
  <varray name="weights" >
   <v>       0.02777778 </v>
   <v>       0.11111111 </v>
   <v>       0.11111111 </v>
   <v>       0.05555556 </v>
   <v>       0.22222222 </v>
   <v>       0.22222222 </v>
   <v>       0.02777778 </v>
   <v>       0.11111111 </v>
   <v>       0.11111111 </v>
  </varray>
 </kpoints>
 <parameters>
  <separator name="general" >
   <i type="string" name="SYSTEM">anatase</i>
   <i type="logical" name="LCOMPAT"> F  </i>
  </separator>
  <separator name="electronic" >
   <i type="string" name="PREC">normal</i>
   <i name="ENMAX">    400.00000000</i>
   <i name="ENAUG">    605.39200000</i>
   <i name="EDIFF">      0.00001000</i>
   <i type="int" name="IALGO">    68</i>
   <i type="int" name="IWAVPR">    10</i>
   <i type="int" name="NBANDS">    72</i>
   <i name="NELECT">     52.00000000</i>
   <i type="int" name="TURBO">     0</i>
   <i type="int" name="IRESTART">     0</i>
   <i type="int" name="NREBOOT">     0</i>
   <i type="int" name="NMIN">     0</i>
   <i name="EREF">      0.00000000</i>
   <separator name="electronic smearing" >
    <i type="int" name="ISMEAR">     0</i>
    <i name="SIGMA">      0.20000000</i>
    <i name="KSPACING">      0.50000000</i>
    <i type="logical" name="KGAMMA"> T  </i>
   </separator>
   <separator name="electronic projectors" >
    <i type="logical" name="LREAL"> F  </i>
    <v name="ROPT">      0.00000000      0.00000000</v>
    <i type="int" name="LMAXPAW">  -100</i>
    <i type="int" name="LMAXMIX">     2</i>
    <i type="logical" name="NLSPLINE"> F  </i>
   </separator>
   <separator name="electronic startup" >
    <i type="int" name="ISTART">     0</i>
    <i type="int" name="ICHARG">     2</i>
    <i type="int" name="INIWAV">     1</i>
   </separator>
   <separator name="electronic spin" >
    <i type="int" name="ISPIN">     2</i>
    <i type="logical" name="LNONCOLLINEAR"> F  </i>
    <v name="MAGMOM">      1.00000000      1.00000000      1.00000000      1.00000000      1.00000000      1.00000000</v>
    <i name="NUPDOWN">     -1.00000000</i>
    <i type="logical" name="LSORBIT"> F  </i>
    <v name="SAXIS">      0.00000000      0.00000000      1.00000000</v>
    <i type="logical" name="LSPIRAL"> F  </i>
    <v name="QSPIRAL">      0.00000000      0.00000000      0.00000000</v>
    <i type="logical" name="LZEROZ"> F  </i>
   </separator>
   <separator name="electronic exchange-correlation" >
    <i type="logical" name="LASPH"> F  </i>
    <i type="logical" name="LMETAGGA"> F  </i>
   </separator>
   <separator name="electronic convergence" >
    <i type="int" name="NELM">    60</i>
    <i type="int" name="NELMDL">    -5</i>
    <i type="int" name="NELMIN">     2</i>
    <i name="ENINI">    400.00000000</i>
    <separator name="electronic convergence detail" >
     <i type="logical" name="LDIAG"> T  </i>
     <i type="logical" name="LSUBROT"> F  </i>
     <i name="WEIMIN">      0.00000000</i>
     <i name="EBREAK">      0.00000003</i>
     <i name="DEPER">      0.30000000</i>
     <i type="int" name="NRMM">     4</i>
     <i name="TIME">      0.40000000</i>
    </separator>
   </separator>
   <separator name="electronic mixer" >
    <i name="AMIX">      0.40000000</i>
    <i name="BMIX">      1.00000000</i>
    <i name="AMIN">      0.10000000</i>
    <i name="AMIX_MAG">      1.60000000</i>
    <i name="BMIX_MAG">      1.00000000</i>
    <separator name="electronic mixer details" >
     <i type="int" name="IMIX">     4</i>
     <i type="logical" name="MIXFIRST"> F  </i>
     <i type="int" name="MAXMIX">   -45</i>
     <i name="WC">    100.00000000</i>
     <i type="int" name="INIMIX">     1</i>
     <i type="int" name="MIXPRE">     1</i>
     <i type="int" name="MREMOVE">     5</i>
    </separator>
   </separator>
   <separator name="electronic dipolcorrection" >
    <i type="logical" name="LDIPOL"> F  </i>
    <i type="logical" name="LMONO"> F  </i>
    <i type="int" name="IDIPOL">     0</i>
    <i name="EPSILON">      1.00000000</i>
    <v name="DIPOL">   -100.00000000   -100.00000000   -100.00000000</v>
    <i name="EFIELD">      0.00000000</i>
   </separator>
  </separator>
  <separator name="grids" >
   <i type="int" name="NGX">    24</i>
   <i type="int" name="NGY">    24</i>
   <i type="int" name="NGZ">    16</i>
   <i type="int" name="NGXF">    48</i>
   <i type="int" name="NGYF">    48</i>
   <i type="int" name="NGZF">    32</i>
   <i type="logical" name="ADDGRID"> F  </i>
  </separator>
  <separator name="ionic" >
   <i type="int" name="NSW">     0</i>
   <i type="int" name="IBRION">    -1</i>
   <i type="int" name="ISIF">     3</i>
   <i name="PSTRESS">      0.00000000</i>
   <i name="EDIFFG">     -0.05000000</i>
   <i type="int" name="NFREE">     0</i>
   <i name="POTIM">      0.50000000</i>
   <i name="SMASS">     -3.00000000</i>
   <i name="SCALEE">      1.00000000</i>
  </separator>
  <separator name="ionic md" >
   <i name="TEBEG">      0.00010000</i>
   <i name="TEEND">      0.00010000</i>
   <i type="int" name="NBLOCK">     1</i>
   <i type="int" name="KBLOCK">     1</i>
   <i type="int" name="NPACO">   256</i>
   <i name="APACO">     16.00000000</i>
  </separator>
  <separator name="symmetry" >
   <i type="int" name="ISYM">     2</i>
   <i name="SYMPREC">      0.00001000</i>
  </separator>
  <separator name="dos" >
   <i type="logical" name="LORBIT"> F  </i>
   <v name="RWIGS">     -1.00000000     -1.00000000</v>
   <i type="int" name="NEDOS">  1000</i>
   <i name="EMIN">    -20.00000000</i>
   <i name="EMAX">     20.00000000</i>
   <i name="EFERMI">      0.00000000</i>
  </separator>
  <separator name="writing" >
   <i type="int" name="NWRITE">     2</i>
   <i type="logical" name="LWAVE"> T  </i>
   <i type="logical" name="LCHARG"> T  </i>
   <i type="logical" name="LPARD"> F  </i>
   <i type="logical" name="LVTOT"> F  </i>
   <i type="logical" name="LVHAR"> F  </i>
   <i type="logical" name="LELF"> F  </i>
   <i type="logical" name="LOPTICS"> F  </i>
   <v name="STM">      0.00000000      0.00000000      0.00000000      0.00000000      0.00000000      0.00000000      0.00000000</v>
  </separator>
  <separator name="performance" >
   <i type="int" name="NPAR">    12</i>
   <i type="int" name="NSIM">     4</i>
   <i type="int" name="NBLK">    -1</i>
   <i type="logical" name="LPLANE"> T  </i>
   <i type="logical" name="LSCALAPACK"> F  </i>
   <i type="logical" name="LSCAAWARE"> F  </i>
   <i type="logical" name="LSCALU"> F  </i>
   <i type="logical" name="LASYNC"> F  </i>
   <i type="logical" name="LORBITALREAL"> F  </i>
  </separator>
  <separator name="miscellaneous" >
   <i type="int" name="IDIOT">     3</i>
   <i type="logical" name="LMUSIC"> F  </i>
   <v name="POMASS">    118.71000000     16.00000000</v>
   <v name="DARWINR">      0.00000000      0.00000000</v>
   <v name="DARWINV">      1.00000000      1.00000000</v>
   <i type="logical" name="LCORR"> T  </i>
  </separator>
  <i type="logical" name="GGA_COMPAT"> T  </i>
  <i type="logical" name="LBERRY"> F  </i>
  <i type="int" name="ICORELEVEL">     0</i>
  <i type="logical" name="LDAU"> T  </i>
  <v type="int" name="LDAUTYPE">     2</v>
  <v type="int" name="LDAUL">     2</v>
  <v name="LDAUU">      8.00000000</v>
  <v name="LDAUJ">      0.00000000</v>
  <i type="int" name="LDAUPRINT">     0</i>
  <i type="int" name="I_CONSTRAINED_M">     0</i>
  <separator name="electronic exchange-correlation" >
   <i type="string" name="GGA">--</i>
   <i type="int" name="VOSKOWN">     0</i>
   <i type="logical" name="LHFCALC"> F  </i>
   <i type="string" name="PRECFOCK"></i>
   <i type="logical" name="LSYMGRAD"> F  </i>
   <i type="logical" name="LHFONE"> F  </i>
   <i type="logical" name="LRHFCALC"> F  </i>
   <i type="logical" name="LTHOMAS"> F  </i>
   <i type="logical" name="LMODELHF"> F  </i>
   <i name="ENCUT4O">     -1.00000000</i>
   <i type="int" name="EXXOEP">     0</i>
   <i type="int" name="FOURORBIT">     0</i>
   <i name="AEXX">      0.00000000</i>
   <i name="HFALPHA">      0.00000000</i>
   <i name="MCALPHA">      0.00000000</i>
   <i name="ALDAX">      1.00000000</i>
   <i name="AGGAX">      1.00000000</i>
   <i name="ALDAC">      1.00000000</i>
   <i name="AGGAC">      1.00000000</i>
   <i type="int" name="NKREDX">     1</i>
   <i type="int" name="NKREDY">     1</i>
   <i type="int" name="NKREDZ">     1</i>
   <i type="logical" name="SHIFTRED"> F  </i>
   <i type="logical" name="ODDONLY"> F  </i>
   <i type="logical" name="EVENONLY"> F  </i>
   <i type="int" name="LMAXFOCK">     0</i>
   <i type="int" name="NMAXFOCKAE">     0</i>
   <i type="logical" name="LFOCKAEDFT"> F  </i>
   <i name="HFSCREEN">      0.00000000</i>
   <i name="HFSCREENC">      0.00000000</i>
   <i type="int" name="NBANDSGWLOW">     0</i>
  </separator>
  <separator name="vdW DFT" >
   <i type="logical" name="LUSE_VDW"> F  </i>
   <i name="Zab_VDW">     -0.84910000</i>
   <i name="PARAM1">      0.12340000</i>
   <i name="PARAM2">      1.00000000</i>
   <i name="PARAM3">      0.00000000</i>
  </separator>
  <separator name="model GW" >
   <i type="int" name="MODEL_GW">     0</i>
   <i name="MODEL_EPS0">      6.03182256</i>
   <i name="MODEL_ALPHA">      1.00000000</i>
  </separator>
  <separator name="linear response parameters" >
   <i type="logical" name="LEPSILON"> F  </i>
   <i type="logical" name="LRPA"> F  </i>
   <i type="logical" name="LNABLA"> F  </i>
   <i type="logical" name="LVEL"> F  </i>
   <i type="int" name="KINTER">     0</i>
   <i name="CSHIFT">      0.10000000</i>
   <i name="OMEGAMAX">     -1.00000000</i>
   <i name="DEG_THRESHOLD">      0.00200000</i>
  </separator>
  <separator name="orbital magnetization" >
   <i type="logical" name="NUCIND"> F  </i>
   <v name="MAGPOS">      0.00000000      0.00000000      0.00000000</v>
   <i type="logical" name="LNICSALL"> T  </i>
   <i type="logical" name="ORBITALMAG"> F  </i>
   <i type="logical" name="LMAGBLOCH"> F  </i>
   <i type="logical" name="LCHIMAG"> F  </i>
   <i type="logical" name="LGAUGE"> T  </i>
   <i type="int" name="MAGATOM">     0</i>
   <v name="MAGDIPOL">      0.00000000      0.00000000      0.00000000</v>
   <v name="AVECCONST">      0.00000000      0.00000000      0.00000000</v>
  </separator>
  <separator name="response functions" >
   <i type="logical" name="LADDER"> F  </i>
   <i type="logical" name="LFXC"> F  </i>
   <i type="logical" name="LHARTREE"> T  </i>
   <i type="int" name="IBSE">     0</i>
   <v type="int" name="KPOINT">    -1     0     0     0</v>
   <i type="logical" name="LTCTE"> F  </i>
   <i type="logical" name="LTETE"> F  </i>
   <i type="logical" name="LTRIPLET"> F  </i>
   <i type="logical" name="LFXCEPS"> F  </i>
   <i type="logical" name="LFXHEG"> F  </i>
   <i type="int" name="NATURALO">     0</i>
   <i type="logical" name="L2ORDER"> F  </i>
   <i type="logical" name="LUSEW"> F  </i>
   <i name="ENCUTGW">     -2.00000000</i>
   <i name="ENCUTGWSOFT">     -2.00000000</i>
   <i name="ENCUTLF">     -1.00000000</i>
   <i type="int" name="LMAXMP2">    -1</i>
   <i name="SCISSOR">      0.00000000</i>
   <i type="int" name="NOMEGA">     0</i>
   <i type="int" name="NOMEGAR">     0</i>
   <i type="int" name="NBANDSGW">    -1</i>
   <i type="int" name="NBANDSO">    -1</i>
   <i type="int" name="NBANDSV">    -1</i>
   <i type="int" name="NELM">    60</i>
   <i type="int" name="NELMHF">     1</i>
   <i type="int" name="DIM">     3</i>
   <i type="int" name="ANTIRES">     0</i>
   <i name="OMEGAMAX">    -30.00000000</i>
   <i name="OMEGAMIN">    -30.00000000</i>
   <i name="OMEGATL">   -200.00000000</i>
   <i type="int" name="OMEGAGRID">     0</i>
   <i name="CSHIFT">     -0.10000000</i>
   <i type="logical" name="SELFENERGY"> F  </i>
   <i type="logical" name="LSPECTRAL"> F  </i>
   <i type="logical" name="LSPECTRALGW"> F  </i>
   <i type="logical" name="LSINGLES"> F  </i>
   <i type="logical" name="LFERMIGW"> F  </i>
   <i type="logical" name="ODDONLYGW"> F  </i>
   <i type="logical" name="EVENONLYGW"> F  </i>
   <i type="int" name="NKREDLFX">     1</i>
   <i type="int" name="NKREDLFY">     1</i>
   <i type="int" name="NKREDLFZ">     1</i>
   <i type="int" name="MAXMEM">  1800</i>
   <i type="int" name="TELESCOPE">     0</i>
   <i type="int" name="TAUPAR">     1</i>
   <i type="int" name="OMEGAPAR">    -1</i>
   <i name="LAMBDA">      1.00000000</i>
  </separator>
  <separator name="External order field" >
   <i name="OFIELD_KAPPA">      0.00000000</i>
   <v name="OFIELD_K">      0.00000000      0.00000000      0.00000000</v>
   <i name="OFIELD_Q6_NEAR">      0.00000000</i>
   <i name="OFIELD_Q6_FAR">      0.00000000</i>
   <i name="OFIELD_A">      0.00000000</i>
  </separator>
 </parameters>
 <atominfo>
  <atoms>       6 </atoms>
  <types>       2 </types>
  <array name="atoms" >
   <dimension dim="1">ion</dimension>
   <field type="string">element</field>
   <field type="int">atomtype</field>
   <set>
    <rc><c>Sn</c><c>   1</c></rc>
    <rc><c>Sn</c><c>   1</c></rc>
    <rc><c>O </c><c>   2</c></rc>
    <rc><c>O </c><c>   2</c></rc>
    <rc><c>O </c><c>   2</c></rc>
    <rc><c>O </c><c>   2</c></rc>
   </set>
  </array>
  <array name="atomtypes" >
   <dimension dim="1">type</dimension>
   <field type="int">atomspertype</field>
   <field type="string">element</field>
   <field>mass</field>
   <field>valence</field>
   <field type="string">pseudopotential</field>
   <set>
    <rc><c>   2</c><c>Sn</c><c>    118.71000000</c><c>     14.00000000</c><c> PAW_PBE Sn_d 06Sep2000                 </c></rc>
    <rc><c>   4</c><c>O </c><c>     16.00000000</c><c>      6.00000000</c><c> PAW_PBE O 08Apr2002                    </c></rc>
   </set>
  </array>
 </atominfo>
 <structure name="initialpos" >
  <crystal>
   <varray name="basis" >
    <v>       4.49823655       0.00000000       0.00000000 </v>
    <v>       0.00000000       4.49823655       0.00000000 </v>
    <v>       0.00000000       0.00000000       2.98101374 </v>
   </varray>
   <i name="volume">     60.31822556 </i>
   <varray name="rec_basis" >
    <v>       0.22230934       0.00000000       0.00000000 </v>
    <v>       0.00000000       0.22230934       0.00000000 </v>
    <v>       0.00000000       0.00000000       0.33545635 </v>
   </varray>
  </crystal>
  <varray name="positions" >
   <v>       0.00000000       0.00000000       0.00000000 </v>
   <v>       0.50000000       0.50000000       0.50000000 </v>
   <v>       0.30489193       0.30489193       0.00000000 </v>
   <v>       0.69510807       0.69510807       0.00000000 </v>
   <v>       0.19510807       0.80489193       0.50000000 </v>
   <v>       0.80489193       0.19510807       0.50000000 </v>
  </varray>
 </structure>
 <calculation>
  <scstep>
   <time name="dav">    0.86    0.86</time>
   <time name="total">    0.88    0.88</time>
   <energy>
    <i name="alphaZ">    217.38013608 </i>
    <i name="ewald">  -4424.35397972 </i>
    <i name="hartreedc">  -1257.31575049 </i>
    <i name="XCdc">    231.59276723 </i>
    <i name="pawpsdc">   3727.42552162 </i>
    <i name="pawaedc">  -3729.97032766 </i>
    <i name="eentropy">     -0.01299310 </i>
    <i name="bandstr">    147.75279235 </i>
    <i name="atom">   5515.19971769 </i>
    <i name="e_fr_energy">    427.69788400 </i>
    <i name="e_wo_entrp">    427.71087711 </i>
    <i name="e_0_energy">    427.70438056 </i>
   </energy>
  </scstep>
  <scstep>
   <time name="dav">    0.62    0.62</time>
   <time name="total">    0.62    0.62</time>
   <energy>
    <i name="e_fr_energy">     10.13685979 </i>
    <i name="e_wo_entrp">     10.13685979 </i>
    <i name="e_0_energy">     10.13685979 </i>
   </energy>
  </scstep>
  <scstep>
   <time name="dav">    0.72    0.72</time>
   <time name="total">    0.72    0.72</time>
   <energy>
    <i name="e_fr_energy">    -43.57484313 </i>
    <i name="e_wo_entrp">    -43.57484313 </i>
    <i name="e_0_energy">    -43.57484313 </i>
   </energy>
  </scstep>
  <scstep>
   <time name="dav">    0.71    0.71</time>
   <time name="total">    0.72    0.72</time>
   <energy>
    <i name="e_fr_energy">    -44.95344679 </i>
    <i name="e_wo_entrp">    -44.95344679 </i>
    <i name="e_0_energy">    -44.95344679 </i>
   </energy>
  </scstep>
  <scstep>
   <time name="dav">    0.73    0.73</time>
   <time name="total">    0.75    0.75</time>
   <energy>
    <i name="e_fr_energy">    -44.96341298 </i>
    <i name="e_wo_entrp">    -44.96341298 </i>
    <i name="e_0_energy">    -44.96341298 </i>
   </energy>
  </scstep>
  <scstep>
   <time name="diag">    0.12    0.12</time>
   <time name="diis">    0.17    0.17</time>
   <time name="orth">    0.03    0.03</time>
   <time name="total">    0.36    0.36</time>
   <energy>
    <i name="e_fr_energy">    -42.59943151 </i>
    <i name="e_wo_entrp">    -42.59943151 </i>
    <i name="e_0_energy">    -42.59943151 </i>
   </energy>
  </scstep>
  <scstep>
   <time name="diag">    0.13    0.13</time>
   <time name="diis">    0.21    0.22</time>
   <time name="orth">    0.04    0.04</time>
   <time name="total">    0.42    0.42</time>
   <energy>
    <i name="e_fr_energy">    -43.11109316 </i>
    <i name="e_wo_entrp">    -43.11109316 </i>
    <i name="e_0_energy">    -43.11109316 </i>
   </energy>
  </scstep>
  <scstep>
   <time name="diag">    0.12    0.12</time>
   <time name="diis">    0.22    0.22</time>
   <time name="orth">    0.04    0.04</time>
   <time name="total">    0.41    0.41</time>
   <energy>
    <i name="e_fr_energy">    -43.31094436 </i>
    <i name="e_wo_entrp">    -43.31094436 </i>
    <i name="e_0_energy">    -43.31094436 </i>
   </energy>
  </scstep>
  <scstep>
   <time name="diag">    0.12    0.12</time>
   <time name="diis">    0.20    0.20</time>
   <time name="orth">    0.04    0.04</time>
   <time name="total">    0.39    0.41</time>
   <energy>
    <i name="e_fr_energy">    -43.42883461 </i>
    <i name="e_wo_entrp">    -43.42883461 </i>
    <i name="e_0_energy">    -43.42883461 </i>
   </energy>
  </scstep>
  <scstep>
   <time name="diag">    0.12    0.12</time>
   <time name="diis">    0.22    0.22</time>
   <time name="orth">    0.04    0.04</time>
   <time name="total">    0.41    0.41</time>
   <energy>
    <i name="e_fr_energy">    -43.43250540 </i>
    <i name="e_wo_entrp">    -43.43250540 </i>
    <i name="e_0_energy">    -43.43250540 </i>
   </energy>
  </scstep>
  <scstep>
   <time name="diag">    0.12    0.12</time>
   <time name="diis">    0.21    0.21</time>
   <time name="orth">    0.03    0.03</time>
   <time name="total">    0.40    0.40</time>
   <energy>
    <i name="e_fr_energy">    -43.43348977 </i>
    <i name="e_wo_entrp">    -43.43348977 </i>
    <i name="e_0_energy">    -43.43348977 </i>
   </energy>
  </scstep>
  <scstep>
   <time name="diag">    0.11    0.11</time>
   <time name="diis">    0.20    0.21</time>
   <time name="orth">    0.04    0.04</time>
   <time name="total">    0.38    0.38</time>
   <energy>
    <i name="e_fr_energy">    -43.43383974 </i>
    <i name="e_wo_entrp">    -43.43383974 </i>
    <i name="e_0_energy">    -43.43383974 </i>
   </energy>
  </scstep>
  <scstep>
   <time name="diag">    0.12    0.12</time>
   <time name="diis">    0.22    0.22</time>
   <time name="orth">    0.03    0.04</time>
   <time name="total">    0.41    0.41</time>
   <energy>
    <i name="e_fr_energy">    -43.43385522 </i>
    <i name="e_wo_entrp">    -43.43385522 </i>
    <i name="e_0_energy">    -43.43385522 </i>
   </energy>
  </scstep>
  <scstep>
   <time name="diag">    0.12    0.12</time>
   <time name="diis">    0.20    0.20</time>
   <time name="orth">    0.04    0.04</time>
   <time name="total">    0.37    0.37</time>
   <energy>
    <i name="alphaZ">    217.38013608 </i>
    <i name="ewald">  -4424.35397972 </i>
    <i name="hartreedc">  -1304.05881843 </i>
    <i name="XCdc">    234.71680345 </i>
    <i name="pawpsdc">   4448.80238385 </i>
    <i name="pawaedc">  -4438.68822905 </i>
    <i name="eentropy">     -0.00000000 </i>
    <i name="bandstr">   -292.43187586 </i>
    <i name="atom">   5515.19971769 </i>
    <i name="e_fr_energy">    -43.43386199 </i>
    <i name="e_wo_entrp">    -43.43386199 </i>
    <i name="e_0_energy">    -43.43386199 </i>
   </energy>
  </scstep>
  <structure>
   <crystal>
    <varray name="basis" >
     <v>       4.49823655       0.00000000       0.00000000 </v>
     <v>       0.00000000       4.49823655       0.00000000 </v>
     <v>       0.00000000       0.00000000       2.98101374 </v>
    </varray>
    <i name="volume">     60.31822556 </i>
    <varray name="rec_basis" >
     <v>       0.22230934       0.00000000       0.00000000 </v>
     <v>       0.00000000       0.22230934       0.00000000 </v>
     <v>       0.00000000       0.00000000       0.33545635 </v>
    </varray>
   </crystal>
   <varray name="positions" >
    <v>       0.00000000       0.00000000       0.00000000 </v>
    <v>       0.50000000       0.50000000       0.50000000 </v>
    <v>       0.30489193       0.30489193       0.00000000 </v>
    <v>       0.69510807       0.69510807       0.00000000 </v>
    <v>       0.19510807       0.80489193       0.50000000 </v>
    <v>       0.80489193       0.19510807       0.50000000 </v>
   </varray>
  </structure>
  <varray name="forces" >
   <v>       0.00000000       0.00000000       0.00000000 </v>
   <v>       0.00000000       0.00000000       0.00000000 </v>
   <v>      -0.01281493      -0.01281493       0.00000000 </v>
   <v>       0.01281493       0.01281493      -0.00000000 </v>
   <v>       0.01281493      -0.01281493       0.00000000 </v>
   <v>      -0.01281493       0.01281493      -0.00000000 </v>
  </varray>
  <varray name="stress" >
   <v>     -51.74163826       0.00000000       0.00000000 </v>
   <v>      -0.00000000     -51.74163826       0.00000000 </v>
   <v>       0.00000000       0.00000000     -49.33879386 </v>
  </varray>
  <energy>
   <i name="e_fr_energy">    -43.43386199 </i>
   <i name="e_wo_entrp">    -43.43386199 </i>
   <i name="e_0_energy">     -0.00000000 </i>
  </energy>
  <time name="totalsc">    7.94    7.96</time>
  <eigenvalues>
   <array>
    <dimension dim="1">band</dimension>
    <dimension dim="2">kpoint</dimension>
    <dimension dim="3">spin</dimension>
    <field>eigene</field>
    <field>occ</field>
    <set>
     <set comment="spin 1">
      <set comment="kpoint 1">
       <r>  -17.9503    1.0000 </r>
       <r>  -17.1872    1.0000 </r>
       <r>  -16.9439    1.0000 </r>
       <r>  -16.9439    1.0000 </r>
       <r>  -15.2345    1.0000 </r>
       <r>  -15.1590    1.0000 </r>
       <r>  -15.0702    1.0000 </r>
       <r>  -14.9284    1.0000 </r>
       <r>  -14.9196    1.0000 </r>
       <r>  -14.9196    1.0000 </r>
       <r>  -12.2153    1.0000 </r>
       <r>   -9.7381    1.0000 </r>
       <r>   -9.7381    1.0000 </r>
       <r>   -8.2281    1.0000 </r>
       <r>   -0.7548    1.0000 </r>
       <r>    3.3431    1.0000 </r>
       <r>    3.3431    1.0000 </r>
       <r>    3.7088    1.0000 </r>
       <r>    3.7321    1.0000 </r>
       <r>    4.5181    1.0000 </r>
       <r>    5.6223    1.0000 </r>
       <r>    5.6223    1.0000 </r>
       <r>    5.8771    1.0000 </r>
       <r>    6.9969    1.0000 </r>
       <r>    6.9969    1.0000 </r>
       <r>    7.9104    1.0000 </r>
       <r>   11.7603    0.0000 </r>
       <r>   15.2268    0.0000 </r>
       <r>   15.7966    0.0000 </r>
       <r>   15.7966    0.0000 </r>
       <r>   19.0940    0.0000 </r>
       <r>   20.9441    0.0000 </r>
       <r>   21.6660    0.0000 </r>
       <r>   21.8585    0.0000 </r>
       <r>   22.6196    0.0000 </r>
       <r>   22.6196    0.0000 </r>
       <r>   25.4852    0.0000 </r>
       <r>   25.7302    0.0000 </r>
       <r>   26.1725    0.0000 </r>
       <r>   26.1725    0.0000 </r>
       <r>   26.4663    0.0000 </r>
       <r>   26.8376    0.0000 </r>
       <r>   28.3290    0.0000 </r>
       <r>   29.5494    0.0000 </r>
       <r>   29.5494    0.0000 </r>
       <r>   30.9265    0.0000 </r>
       <r>   30.9265    0.0000 </r>
       <r>   32.1015    0.0000 </r>
       <r>   32.6939    0.0000 </r>
       <r>   33.3891    0.0000 </r>
       <r>   34.9224    0.0000 </r>
       <r>   34.9224    0.0000 </r>
       <r>   37.1313    0.0000 </r>
       <r>   37.1313    0.0000 </r>
       <r>   37.7859    0.0000 </r>
       <r>   37.9886    0.0000 </r>
       <r>   38.0172    0.0000 </r>
       <r>   39.5297    0.0000 </r>
       <r>   41.1965    0.0000 </r>
       <r>   41.1965    0.0000 </r>
       <r>   41.4507    0.0000 </r>
       <r>   42.2236    0.0000 </r>
       <r>   42.2236    0.0000 </r>
       <r>   43.6016    0.0000 </r>
       <r>   45.1183    0.0000 </r>
       <r>   45.1502    0.0000 </r>
       <r>   46.0141    0.0000 </r>
       <r>   46.5308    0.0000 </r>
       <r>   46.5310    0.0000 </r>
       <r>   47.8247    0.0000 </r>
       <r>   47.8624    0.0000 </r>
       <r>   48.0612    0.0000 </r>
      </set>
      <set comment="kpoint 2">
       <r>  -17.7818    1.0000 </r>
       <r>  -17.4031    1.0000 </r>
       <r>  -16.9430    1.0000 </r>
       <r>  -16.9430    1.0000 </r>
       <r>  -15.2186    1.0000 </r>
       <r>  -15.1818    1.0000 </r>
       <r>  -15.0308    1.0000 </r>
       <r>  -14.9595    1.0000 </r>
       <r>  -14.9221    1.0000 </r>
       <r>  -14.9220    1.0000 </r>
       <r>  -11.7609    1.0000 </r>
       <r>  -10.5967    1.0000 </r>
       <r>   -9.2448    1.0000 </r>
       <r>   -8.4217    1.0000 </r>
       <r>    0.0461    1.0000 </r>
       <r>    1.8672    1.0000 </r>
       <r>    3.6998    1.0000 </r>
       <r>    4.0910    1.0000 </r>
       <r>    4.6274    1.0000 </r>
       <r>    4.9807    1.0000 </r>
       <r>    5.0093    1.0000 </r>
       <r>    5.6475    1.0000 </r>
       <r>    5.7348    1.0000 </r>
       <r>    5.9291    1.0000 </r>
       <r>    6.9570    1.0000 </r>
       <r>    7.3443    1.0000 </r>
       <r>   13.4507    0.0000 </r>
       <r>   15.2137    0.0000 </r>
       <r>   16.2249    0.0000 </r>
       <r>   16.2883    0.0000 </r>
       <r>   20.4411    0.0000 </r>
       <r>   20.7563    0.0000 </r>
       <r>   21.1941    0.0000 </r>
       <r>   21.4718    0.0000 </r>
       <r>   21.8418    0.0000 </r>
       <r>   21.9924    0.0000 </r>
       <r>   23.4531    0.0000 </r>
       <r>   23.9999    0.0000 </r>
       <r>   25.8206    0.0000 </r>
       <r>   26.8371    0.0000 </r>
       <r>   26.9809    0.0000 </r>
       <r>   28.2558    0.0000 </r>
       <r>   28.4977    0.0000 </r>
       <r>   29.3002    0.0000 </r>
       <r>   29.6332    0.0000 </r>
       <r>   30.0809    0.0000 </r>
       <r>   30.7588    0.0000 </r>
       <r>   32.2438    0.0000 </r>
       <r>   32.9248    0.0000 </r>
       <r>   34.0547    0.0000 </r>
       <r>   34.8418    0.0000 </r>
       <r>   34.9438    0.0000 </r>
       <r>   36.2840    0.0000 </r>
       <r>   36.4669    0.0000 </r>
       <r>   37.8952    0.0000 </r>
       <r>   39.2028    0.0000 </r>
       <r>   39.5678    0.0000 </r>
       <r>   40.2181    0.0000 </r>
       <r>   40.2601    0.0000 </r>
       <r>   42.0769    0.0000 </r>
       <r>   42.3073    0.0000 </r>
       <r>   43.6635    0.0000 </r>
       <r>   43.7888    0.0000 </r>
       <r>   43.8169    0.0000 </r>
       <r>   44.7105    0.0000 </r>
       <r>   45.0168    0.0000 </r>
       <r>   45.1648    0.0000 </r>
       <r>   45.6033    0.0000 </r>
       <r>   46.5506    0.0000 </r>
       <r>   46.6804    0.0000 </r>
       <r>   47.2429    0.0000 </r>
       <r>   48.3273    0.0000 </r>
      </set>
      <set comment="kpoint 3">
       <r>  -17.7084    1.0000 </r>
       <r>  -17.5208    1.0000 </r>
       <r>  -16.9450    1.0000 </r>
       <r>  -16.9435    1.0000 </r>
       <r>  -15.2110    1.0000 </r>
       <r>  -15.1930    1.0000 </r>
       <r>  -15.0080    1.0000 </r>
       <r>  -14.9722    1.0000 </r>
       <r>  -14.9221    1.0000 </r>
       <r>  -14.9200    1.0000 </r>
       <r>  -11.2629    1.0000 </r>
       <r>  -10.2063    1.0000 </r>
       <r>   -9.8837    1.0000 </r>
       <r>   -8.9373    1.0000 </r>
       <r>    0.8413    1.0000 </r>
       <r>    1.9921    1.0000 </r>
       <r>    3.4092    1.0000 </r>
       <r>    4.3876    1.0000 </r>
       <r>    4.4269    1.0000 </r>
       <r>    4.9310    1.0000 </r>
       <r>    5.1119    1.0000 </r>
       <r>    5.5488    1.0000 </r>
       <r>    5.6685    1.0000 </r>
       <r>    5.7744    1.0000 </r>
       <r>    6.7225    1.0000 </r>
       <r>    6.9814    1.0000 </r>
       <r>   14.2069    0.0000 </r>
       <r>   15.0365    0.0000 </r>
       <r>   16.7645    0.0000 </r>
       <r>   16.9936    0.0000 </r>
       <r>   19.9602    0.0000 </r>
       <r>   20.8671    0.0000 </r>
       <r>   21.1776    0.0000 </r>
       <r>   21.3297    0.0000 </r>
       <r>   21.4551    0.0000 </r>
       <r>   22.6048    0.0000 </r>
       <r>   23.0627    0.0000 </r>
       <r>   23.9211    0.0000 </r>
       <r>   25.0750    0.0000 </r>
       <r>   25.6146    0.0000 </r>
       <r>   26.1519    0.0000 </r>
       <r>   26.5426    0.0000 </r>
       <r>   28.1923    0.0000 </r>
       <r>   29.2057    0.0000 </r>
       <r>   30.3352    0.0000 </r>
       <r>   31.7339    0.0000 </r>
       <r>   32.2271    0.0000 </r>
       <r>   32.8827    0.0000 </r>
       <r>   32.9695    0.0000 </r>
       <r>   34.3081    0.0000 </r>
       <r>   34.8013    0.0000 </r>
       <r>   35.9094    0.0000 </r>
       <r>   36.4460    0.0000 </r>
       <r>   36.7096    0.0000 </r>
       <r>   37.4726    0.0000 </r>
       <r>   37.6148    0.0000 </r>
       <r>   39.1025    0.0000 </r>
       <r>   39.6475    0.0000 </r>
       <r>   41.9474    0.0000 </r>
       <r>   41.9820    0.0000 </r>
       <r>   42.2144    0.0000 </r>
       <r>   42.4992    0.0000 </r>
       <r>   43.0031    0.0000 </r>
       <r>   44.9114    0.0000 </r>
       <r>   45.0140    0.0000 </r>
       <r>   45.0790    0.0000 </r>
       <r>   45.4669    0.0000 </r>
       <r>   47.0990    0.0000 </r>
       <r>   47.1845    0.0000 </r>
       <r>   47.5327    0.0000 </r>
       <r>   47.5849    0.0000 </r>
       <r>   47.7199    0.0000 </r>
      </set>
      <set comment="kpoint 4">
       <r>  -17.6454    1.0000 </r>
       <r>  -17.3466    1.0000 </r>
       <r>  -17.3466    1.0000 </r>
       <r>  -17.0587    1.0000 </r>
       <r>  -15.0410    1.0000 </r>
       <r>  -15.0324    1.0000 </r>
       <r>  -15.0117    1.0000 </r>
       <r>  -15.0117    1.0000 </r>
       <r>  -14.9879    1.0000 </r>
       <r>  -14.9323    1.0000 </r>
       <r>  -11.6789    1.0000 </r>
       <r>   -9.0639    1.0000 </r>
       <r>   -9.0639    1.0000 </r>
       <r>   -8.6506    1.0000 </r>
       <r>   -0.6253    1.0000 </r>
       <r>    2.9995    1.0000 </r>
       <r>    3.1743    1.0000 </r>
       <r>    3.8881    1.0000 </r>
       <r>    3.8881    1.0000 </r>
       <r>    4.2673    1.0000 </r>
       <r>    4.2673    1.0000 </r>
       <r>    4.2694    1.0000 </r>
       <r>    4.3999    1.0000 </r>
       <r>    6.7412    1.0000 </r>
       <r>    6.7412    1.0000 </r>
       <r>    7.2542    1.0000 </r>
       <r>   14.1559    0.0000 </r>
       <r>   17.0398    0.0000 </r>
       <r>   17.8348    0.0000 </r>
       <r>   17.8348    0.0000 </r>
       <r>   18.1331    0.0000 </r>
       <r>   20.7007    0.0000 </r>
       <r>   21.3129    0.0000 </r>
       <r>   21.3754    0.0000 </r>
       <r>   22.1261    0.0000 </r>
       <r>   22.1439    0.0000 </r>
       <r>   22.1439    0.0000 </r>
       <r>   24.0922    0.0000 </r>
       <r>   24.0922    0.0000 </r>
       <r>   24.9466    0.0000 </r>
       <r>   28.1814    0.0000 </r>
       <r>   28.6771    0.0000 </r>
       <r>   29.0168    0.0000 </r>
       <r>   30.9108    0.0000 </r>
       <r>   30.9108    0.0000 </r>
       <r>   32.5552    0.0000 </r>
       <r>   33.0039    0.0000 </r>
       <r>   33.0039    0.0000 </r>
       <r>   34.6215    0.0000 </r>
       <r>   34.6215    0.0000 </r>
       <r>   34.8427    0.0000 </r>
       <r>   35.4797    0.0000 </r>
       <r>   37.2463    0.0000 </r>
       <r>   37.8007    0.0000 </r>
       <r>   37.8007    0.0000 </r>
       <r>   38.6136    0.0000 </r>
       <r>   38.9628    0.0000 </r>
       <r>   39.1977    0.0000 </r>
       <r>   39.9299    0.0000 </r>
       <r>   40.1704    0.0000 </r>
       <r>   40.1704    0.0000 </r>
       <r>   41.9690    0.0000 </r>
       <r>   42.5735    0.0000 </r>
       <r>   42.5735    0.0000 </r>
       <r>   43.0066    0.0000 </r>
       <r>   43.4555    0.0000 </r>
       <r>   46.3050    0.0000 </r>
       <r>   46.4769    0.0000 </r>
       <r>   46.5096    0.0000 </r>
       <r>   46.5096    0.0000 </r>
       <r>   47.6929    0.0000 </r>
       <r>   47.6950    0.0000 </r>
      </set>
      <set comment="kpoint 5">
       <r>  -17.6491    1.0000 </r>
       <r>  -17.5101    1.0000 </r>
       <r>  -17.1999    1.0000 </r>
       <r>  -17.0442    1.0000 </r>
       <r>  -15.0594    1.0000 </r>
       <r>  -15.0456    1.0000 </r>
       <r>  -15.0075    1.0000 </r>
       <r>  -14.9770    1.0000 </r>
       <r>  -14.9740    1.0000 </r>
       <r>  -14.9471    1.0000 </r>
       <r>  -11.2563    1.0000 </r>
       <r>  -10.1168    1.0000 </r>
       <r>   -8.7603    1.0000 </r>
       <r>   -8.3855    1.0000 </r>
       <r>    0.2139    1.0000 </r>
       <r>    2.1570    1.0000 </r>
       <r>    2.3280    1.0000 </r>
       <r>    2.5427    1.0000 </r>
       <r>    3.8984    1.0000 </r>
       <r>    4.2359    1.0000 </r>
       <r>    5.1699    1.0000 </r>
       <r>    5.2730    1.0000 </r>
       <r>    5.3401    1.0000 </r>
       <r>    6.4113    1.0000 </r>
       <r>    6.6758    1.0000 </r>
       <r>    7.1334    1.0000 </r>
       <r>   15.0354    0.0000 </r>
       <r>   16.8047    0.0000 </r>
       <r>   18.0041    0.0000 </r>
       <r>   18.1056    0.0000 </r>
       <r>   18.8612    0.0000 </r>
       <r>   20.2774    0.0000 </r>
       <r>   20.3548    0.0000 </r>
       <r>   20.9149    0.0000 </r>
       <r>   21.4403    0.0000 </r>
       <r>   21.9852    0.0000 </r>
       <r>   22.1123    0.0000 </r>
       <r>   22.9742    0.0000 </r>
       <r>   24.1871    0.0000 </r>
       <r>   26.7805    0.0000 </r>
       <r>   27.8282    0.0000 </r>
       <r>   28.8371    0.0000 </r>
       <r>   29.6589    0.0000 </r>
       <r>   30.5824    0.0000 </r>
       <r>   31.0517    0.0000 </r>
       <r>   31.1622    0.0000 </r>
       <r>   31.7780    0.0000 </r>
       <r>   33.3168    0.0000 </r>
       <r>   34.0238    0.0000 </r>
       <r>   34.0882    0.0000 </r>
       <r>   35.3810    0.0000 </r>
       <r>   35.4528    0.0000 </r>
       <r>   35.7417    0.0000 </r>
       <r>   36.5518    0.0000 </r>
       <r>   38.6657    0.0000 </r>
       <r>   39.4352    0.0000 </r>
       <r>   40.0207    0.0000 </r>
       <r>   40.2355    0.0000 </r>
       <r>   40.9734    0.0000 </r>
       <r>   41.5720    0.0000 </r>
       <r>   41.5967    0.0000 </r>
       <r>   42.1468    0.0000 </r>
       <r>   42.5748    0.0000 </r>
       <r>   43.0740    0.0000 </r>
       <r>   44.2415    0.0000 </r>
       <r>   44.4597    0.0000 </r>
       <r>   44.8246    0.0000 </r>
       <r>   45.3495    0.0000 </r>
       <r>   47.9192    0.0000 </r>
       <r>   47.9442    0.0000 </r>
       <r>   48.4526    0.0000 </r>
       <r>   49.1010    0.0000 </r>
      </set>
      <set comment="kpoint 6">
       <r>  -17.5859    1.0000 </r>
       <r>  -17.3858    1.0000 </r>
       <r>  -17.3513    1.0000 </r>
       <r>  -17.1298    1.0000 </r>
       <r>  -15.0518    1.0000 </r>
       <r>  -15.0204    1.0000 </r>
       <r>  -15.0150    1.0000 </r>
       <r>  -14.9821    1.0000 </r>
       <r>  -14.9792    1.0000 </r>
       <r>  -14.9589    1.0000 </r>
       <r>  -10.8023    1.0000 </r>
       <r>   -9.9768    1.0000 </r>
       <r>   -9.1878    1.0000 </r>
       <r>   -8.6494    1.0000 </r>
       <r>    0.4563    1.0000 </r>
       <r>    1.0214    1.0000 </r>
       <r>    3.0442    1.0000 </r>
       <r>    3.2912    1.0000 </r>
       <r>    3.5251    1.0000 </r>
       <r>    4.2824    1.0000 </r>
       <r>    4.5946    1.0000 </r>
       <r>    5.6103    1.0000 </r>
       <r>    5.8480    1.0000 </r>
       <r>    6.3866    1.0000 </r>
       <r>    6.7079    1.0000 </r>
       <r>    7.0757    1.0000 </r>
       <r>   15.1970    0.0000 </r>
       <r>   16.1192    0.0000 </r>
       <r>   18.2700    0.0000 </r>
       <r>   18.4105    0.0000 </r>
       <r>   18.8217    0.0000 </r>
       <r>   20.4453    0.0000 </r>
       <r>   20.4674    0.0000 </r>
       <r>   20.8222    0.0000 </r>
       <r>   20.9431    0.0000 </r>
       <r>   21.8025    0.0000 </r>
       <r>   23.1719    0.0000 </r>
       <r>   23.2120    0.0000 </r>
       <r>   23.4336    0.0000 </r>
       <r>   25.9852    0.0000 </r>
       <r>   27.2501    0.0000 </r>
       <r>   27.5079    0.0000 </r>
       <r>   29.6074    0.0000 </r>
       <r>   29.9878    0.0000 </r>
       <r>   30.0076    0.0000 </r>
       <r>   31.3641    0.0000 </r>
       <r>   33.0419    0.0000 </r>
       <r>   33.7488    0.0000 </r>
       <r>   34.1357    0.0000 </r>
       <r>   35.4135    0.0000 </r>
       <r>   35.5508    0.0000 </r>
       <r>   36.6766    0.0000 </r>
       <r>   36.6897    0.0000 </r>
       <r>   37.0568    0.0000 </r>
       <r>   37.5671    0.0000 </r>
       <r>   37.8632    0.0000 </r>
       <r>   38.6122    0.0000 </r>
       <r>   40.7067    0.0000 </r>
       <r>   41.7336    0.0000 </r>
       <r>   42.2608    0.0000 </r>
       <r>   42.3908    0.0000 </r>
       <r>   42.8784    0.0000 </r>
       <r>   43.4653    0.0000 </r>
       <r>   43.7865    0.0000 </r>
       <r>   44.2642    0.0000 </r>
       <r>   44.5114    0.0000 </r>
       <r>   44.9614    0.0000 </r>
       <r>   46.6985    0.0000 </r>
       <r>   46.7235    0.0000 </r>
       <r>   47.4419    0.0000 </r>
       <r>   47.8208    0.0000 </r>
       <r>   48.7279    0.0000 </r>
      </set>
      <set comment="kpoint 7">
       <r>  -17.7032    1.0000 </r>
       <r>  -17.7032    1.0000 </r>
       <r>  -17.1624    1.0000 </r>
       <r>  -17.1624    1.0000 </r>
       <r>  -15.1005    1.0000 </r>
       <r>  -15.1005    1.0000 </r>
       <r>  -14.9651    1.0000 </r>
       <r>  -14.9651    1.0000 </r>
       <r>  -14.8034    1.0000 </r>
       <r>  -14.8034    1.0000 </r>
       <r>  -10.1220    1.0000 </r>
       <r>  -10.1220    1.0000 </r>
       <r>   -8.3894    1.0000 </r>
       <r>   -8.3894    1.0000 </r>
       <r>    0.4533    1.0000 </r>
       <r>    0.4533    1.0000 </r>
       <r>    3.1134    1.0000 </r>
       <r>    3.1134    1.0000 </r>
       <r>    3.2382    1.0000 </r>
       <r>    3.2382    1.0000 </r>
       <r>    4.6786    1.0000 </r>
       <r>    4.6786    1.0000 </r>
       <r>    5.6970    1.0000 </r>
       <r>    5.6970    1.0000 </r>
       <r>    6.2255    1.0000 </r>
       <r>    6.2255    1.0000 </r>
       <r>   16.7666    0.0000 </r>
       <r>   16.7666    0.0000 </r>
       <r>   18.7808    0.0000 </r>
       <r>   18.7808    0.0000 </r>
       <r>   19.9692    0.0000 </r>
       <r>   19.9692    0.0000 </r>
       <r>   20.9580    0.0000 </r>
       <r>   20.9580    0.0000 </r>
       <r>   21.1039    0.0000 </r>
       <r>   21.1039    0.0000 </r>
       <r>   23.0937    0.0000 </r>
       <r>   23.0937    0.0000 </r>
       <r>   23.8404    0.0000 </r>
       <r>   23.8404    0.0000 </r>
       <r>   29.9669    0.0000 </r>
       <r>   29.9669    0.0000 </r>
       <r>   30.5673    0.0000 </r>
       <r>   30.5673    0.0000 </r>
       <r>   31.7594    0.0000 </r>
       <r>   31.7594    0.0000 </r>
       <r>   33.5481    0.0000 </r>
       <r>   33.5481    0.0000 </r>
       <r>   34.4462    0.0000 </r>
       <r>   34.4462    0.0000 </r>
       <r>   36.3903    0.0000 </r>
       <r>   36.3903    0.0000 </r>
       <r>   38.0854    0.0000 </r>
       <r>   38.0854    0.0000 </r>
       <r>   38.2280    0.0000 </r>
       <r>   38.2280    0.0000 </r>
       <r>   38.8653    0.0000 </r>
       <r>   38.8653    0.0000 </r>
       <r>   39.8553    0.0000 </r>
       <r>   39.8553    0.0000 </r>
       <r>   40.2668    0.0000 </r>
       <r>   40.2668    0.0000 </r>
       <r>   42.0814    0.0000 </r>
       <r>   42.0814    0.0000 </r>
       <r>   44.7838    0.0000 </r>
       <r>   44.7838    0.0000 </r>
       <r>   46.5513    0.0000 </r>
       <r>   46.5513    0.0000 </r>
       <r>   47.0024    0.0000 </r>
       <r>   47.0026    0.0000 </r>
       <r>   48.0216    0.0000 </r>
       <r>   48.0268    0.0000 </r>
      </set>
      <set comment="kpoint 8">
       <r>  -17.8317    1.0000 </r>
       <r>  -17.8317    1.0000 </r>
       <r>  -17.0088    1.0000 </r>
       <r>  -17.0088    1.0000 </r>
       <r>  -15.1138    1.0000 </r>
       <r>  -15.1138    1.0000 </r>
       <r>  -14.9578    1.0000 </r>
       <r>  -14.9578    1.0000 </r>
       <r>  -14.7934    1.0000 </r>
       <r>  -14.7934    1.0000 </r>
       <r>  -10.1819    1.0000 </r>
       <r>  -10.1819    1.0000 </r>
       <r>   -8.3372    1.0000 </r>
       <r>   -8.3372    1.0000 </r>
       <r>    0.5659    1.0000 </r>
       <r>    0.5659    1.0000 </r>
       <r>    2.0811    1.0000 </r>
       <r>    2.0811    1.0000 </r>
       <r>    3.2361    1.0000 </r>
       <r>    3.2361    1.0000 </r>
       <r>    5.2429    1.0000 </r>
       <r>    5.2429    1.0000 </r>
       <r>    6.1885    1.0000 </r>
       <r>    6.1885    1.0000 </r>
       <r>    6.4442    1.0000 </r>
       <r>    6.4442    1.0000 </r>
       <r>   16.7726    0.0000 </r>
       <r>   16.7726    0.0000 </r>
       <r>   18.0644    0.0000 </r>
       <r>   18.0644    0.0000 </r>
       <r>   20.1501    0.0000 </r>
       <r>   20.1501    0.0000 </r>
       <r>   20.6509    0.0000 </r>
       <r>   20.6509    0.0000 </r>
       <r>   21.4017    0.0000 </r>
       <r>   21.4017    0.0000 </r>
       <r>   22.0855    0.0000 </r>
       <r>   22.0855    0.0000 </r>
       <r>   25.1051    0.0000 </r>
       <r>   25.1051    0.0000 </r>
       <r>   29.9293    0.0000 </r>
       <r>   29.9293    0.0000 </r>
       <r>   30.8129    0.0000 </r>
       <r>   30.8129    0.0000 </r>
       <r>   31.6003    0.0000 </r>
       <r>   31.6003    0.0000 </r>
       <r>   32.5947    0.0000 </r>
       <r>   32.5947    0.0000 </r>
       <r>   34.6820    0.0000 </r>
       <r>   34.6820    0.0000 </r>
       <r>   34.9670    0.0000 </r>
       <r>   34.9670    0.0000 </r>
       <r>   36.9104    0.0000 </r>
       <r>   36.9104    0.0000 </r>
       <r>   37.9389    0.0000 </r>
       <r>   37.9389    0.0000 </r>
       <r>   38.7995    0.0000 </r>
       <r>   38.7995    0.0000 </r>
       <r>   40.8318    0.0000 </r>
       <r>   40.8318    0.0000 </r>
       <r>   42.8094    0.0000 </r>
       <r>   42.8094    0.0000 </r>
       <r>   43.4710    0.0000 </r>
       <r>   43.4710    0.0000 </r>
       <r>   45.9025    0.0000 </r>
       <r>   45.9025    0.0000 </r>
       <r>   46.8330    0.0000 </r>
       <r>   46.8331    0.0000 </r>
       <r>   48.2316    0.0000 </r>
       <r>   48.2325    0.0000 </r>
       <r>   48.9976    0.0000 </r>
       <r>   49.1884    0.0000 </r>
      </set>
      <set comment="kpoint 9">
       <r>  -17.8351    1.0000 </r>
       <r>  -17.7108    1.0000 </r>
       <r>  -17.1704    1.0000 </r>
       <r>  -17.0126    1.0000 </r>
       <r>  -15.1120    1.0000 </r>
       <r>  -15.1072    1.0000 </r>
       <r>  -14.9576    1.0000 </r>
       <r>  -14.9541    1.0000 </r>
       <r>  -14.8029    1.0000 </r>
       <r>  -14.7935    1.0000 </r>
       <r>  -10.0993    1.0000 </r>
       <r>   -9.9341    1.0000 </r>
       <r>   -8.4887    1.0000 </r>
       <r>   -8.3711    1.0000 </r>
       <r>   -0.3818    1.0000 </r>
       <r>    0.0175    1.0000 </r>
       <r>    2.2849    1.0000 </r>
       <r>    2.3209    1.0000 </r>
       <r>    3.0174    1.0000 </r>
       <r>    4.5183    1.0000 </r>
       <r>    4.7382    1.0000 </r>
       <r>    5.7325    1.0000 </r>
       <r>    6.4743    1.0000 </r>
       <r>    6.5000    1.0000 </r>
       <r>    6.5142    1.0000 </r>
       <r>    6.6782    1.0000 </r>
       <r>   15.4569    0.0000 </r>
       <r>   15.7275    0.0000 </r>
       <r>   17.9272    0.0000 </r>
       <r>   18.5490    0.0000 </r>
       <r>   20.3875    0.0000 </r>
       <r>   20.4374    0.0000 </r>
       <r>   20.4400    0.0000 </r>
       <r>   21.0690    0.0000 </r>
       <r>   21.3868    0.0000 </r>
       <r>   21.6257    0.0000 </r>
       <r>   21.9891    0.0000 </r>
       <r>   22.6239    0.0000 </r>
       <r>   23.9420    0.0000 </r>
       <r>   27.3947    0.0000 </r>
       <r>   27.6195    0.0000 </r>
       <r>   28.3501    0.0000 </r>
       <r>   28.8992    0.0000 </r>
       <r>   31.0047    0.0000 </r>
       <r>   32.0000    0.0000 </r>
       <r>   32.3596    0.0000 </r>
       <r>   33.0147    0.0000 </r>
       <r>   34.0202    0.0000 </r>
       <r>   34.1764    0.0000 </r>
       <r>   34.3037    0.0000 </r>
       <r>   35.4168    0.0000 </r>
       <r>   35.8733    0.0000 </r>
       <r>   36.2510    0.0000 </r>
       <r>   36.6575    0.0000 </r>
       <r>   36.8427    0.0000 </r>
       <r>   38.9900    0.0000 </r>
       <r>   40.5094    0.0000 </r>
       <r>   40.5708    0.0000 </r>
       <r>   40.9474    0.0000 </r>
       <r>   41.6537    0.0000 </r>
       <r>   42.9859    0.0000 </r>
       <r>   43.0757    0.0000 </r>
       <r>   43.6284    0.0000 </r>
       <r>   43.8532    0.0000 </r>
       <r>   44.4493    0.0000 </r>
       <r>   45.0413    0.0000 </r>
       <r>   45.9132    0.0000 </r>
       <r>   46.9190    0.0000 </r>
       <r>   48.3255    0.0000 </r>
       <r>   48.3818    0.0000 </r>
       <r>   48.4012    0.0000 </r>
       <r>   49.4898    0.0000 </r>
      </set>
     </set>
     <set comment="spin 2">
      <set comment="kpoint 1">
       <r>  -17.9501    1.0000 </r>
       <r>  -17.1870    1.0000 </r>
       <r>  -16.9437    1.0000 </r>
       <r>  -16.9437    1.0000 </r>
       <r>  -15.2342    1.0000 </r>
       <r>  -15.1587    1.0000 </r>
       <r>  -15.0698    1.0000 </r>
       <r>  -14.9280    1.0000 </r>
       <r>  -14.9194    1.0000 </r>
       <r>  -14.9194    1.0000 </r>
       <r>  -12.2153    1.0000 </r>
       <r>   -9.7380    1.0000 </r>
       <r>   -9.7380    1.0000 </r>
       <r>   -8.2280    1.0000 </r>
       <r>   -0.7547    1.0000 </r>
       <r>    3.3431    1.0000 </r>
       <r>    3.3431    1.0000 </r>
       <r>    3.7089    1.0000 </r>
       <r>    3.7322    1.0000 </r>
       <r>    4.5181    1.0000 </r>
       <r>    5.6224    1.0000 </r>
       <r>    5.6224    1.0000 </r>
       <r>    5.8771    1.0000 </r>
       <r>    6.9970    1.0000 </r>
       <r>    6.9970    1.0000 </r>
       <r>    7.9105    1.0000 </r>
       <r>   11.7604    0.0000 </r>
       <r>   15.2269    0.0000 </r>
       <r>   15.7966    0.0000 </r>
       <r>   15.7966    0.0000 </r>
       <r>   19.0940    0.0000 </r>
       <r>   20.9440    0.0000 </r>
       <r>   21.6661    0.0000 </r>
       <r>   21.8585    0.0000 </r>
       <r>   22.6196    0.0000 </r>
       <r>   22.6196    0.0000 </r>
       <r>   25.4858    0.0000 </r>
       <r>   25.7301    0.0000 </r>
       <r>   26.1728    0.0000 </r>
       <r>   26.1728    0.0000 </r>
       <r>   26.4667    0.0000 </r>
       <r>   26.8376    0.0000 </r>
       <r>   28.3291    0.0000 </r>
       <r>   29.5493    0.0000 </r>
       <r>   29.5493    0.0000 </r>
       <r>   30.9264    0.0000 </r>
       <r>   30.9264    0.0000 </r>
       <r>   32.1014    0.0000 </r>
       <r>   32.6937    0.0000 </r>
       <r>   33.3889    0.0000 </r>
       <r>   34.9226    0.0000 </r>
       <r>   34.9226    0.0000 </r>
       <r>   37.1312    0.0000 </r>
       <r>   37.1312    0.0000 </r>
       <r>   37.7859    0.0000 </r>
       <r>   37.9886    0.0000 </r>
       <r>   38.0179    0.0000 </r>
       <r>   39.5298    0.0000 </r>
       <r>   41.1964    0.0000 </r>
       <r>   41.1964    0.0000 </r>
       <r>   41.4506    0.0000 </r>
       <r>   42.2235    0.0000 </r>
       <r>   42.2235    0.0000 </r>
       <r>   43.6015    0.0000 </r>
       <r>   45.1182    0.0000 </r>
       <r>   45.1502    0.0000 </r>
       <r>   46.0242    0.0000 </r>
       <r>   46.5309    0.0000 </r>
       <r>   46.5311    0.0000 </r>
       <r>   47.8264    0.0000 </r>
       <r>   47.9984    0.0000 </r>
       <r>   48.0571    0.0000 </r>
      </set>
      <set comment="kpoint 2">
       <r>  -17.7816    1.0000 </r>
       <r>  -17.4029    1.0000 </r>
       <r>  -16.9428    1.0000 </r>
       <r>  -16.9427    1.0000 </r>
       <r>  -15.2182    1.0000 </r>
       <r>  -15.1814    1.0000 </r>
       <r>  -15.0304    1.0000 </r>
       <r>  -14.9591    1.0000 </r>
       <r>  -14.9219    1.0000 </r>
       <r>  -14.9218    1.0000 </r>
       <r>  -11.7608    1.0000 </r>
       <r>  -10.5966    1.0000 </r>
       <r>   -9.2447    1.0000 </r>
       <r>   -8.4216    1.0000 </r>
       <r>    0.0461    1.0000 </r>
       <r>    1.8672    1.0000 </r>
       <r>    3.6999    1.0000 </r>
       <r>    4.0911    1.0000 </r>
       <r>    4.6275    1.0000 </r>
       <r>    4.9807    1.0000 </r>
       <r>    5.0093    1.0000 </r>
       <r>    5.6476    1.0000 </r>
       <r>    5.7349    1.0000 </r>
       <r>    5.9291    1.0000 </r>
       <r>    6.9571    1.0000 </r>
       <r>    7.3444    1.0000 </r>
       <r>   13.4508    0.0000 </r>
       <r>   15.2137    0.0000 </r>
       <r>   16.2249    0.0000 </r>
       <r>   16.2882    0.0000 </r>
       <r>   20.4412    0.0000 </r>
       <r>   20.7564    0.0000 </r>
       <r>   21.1941    0.0000 </r>
       <r>   21.4719    0.0000 </r>
       <r>   21.8418    0.0000 </r>
       <r>   21.9925    0.0000 </r>
       <r>   23.4533    0.0000 </r>
       <r>   24.0000    0.0000 </r>
       <r>   25.8207    0.0000 </r>
       <r>   26.8373    0.0000 </r>
       <r>   26.9810    0.0000 </r>
       <r>   28.2559    0.0000 </r>
       <r>   28.4978    0.0000 </r>
       <r>   29.3002    0.0000 </r>
       <r>   29.6332    0.0000 </r>
       <r>   30.0810    0.0000 </r>
       <r>   30.7586    0.0000 </r>
       <r>   32.2439    0.0000 </r>
       <r>   32.9250    0.0000 </r>
       <r>   34.0547    0.0000 </r>
       <r>   34.8419    0.0000 </r>
       <r>   34.9439    0.0000 </r>
       <r>   36.2840    0.0000 </r>
       <r>   36.4668    0.0000 </r>
       <r>   37.8951    0.0000 </r>
       <r>   39.2027    0.0000 </r>
       <r>   39.5677    0.0000 </r>
       <r>   40.2180    0.0000 </r>
       <r>   40.2603    0.0000 </r>
       <r>   42.0769    0.0000 </r>
       <r>   42.3075    0.0000 </r>
       <r>   43.6637    0.0000 </r>
       <r>   43.7887    0.0000 </r>
       <r>   43.8174    0.0000 </r>
       <r>   44.7105    0.0000 </r>
       <r>   45.0168    0.0000 </r>
       <r>   45.1673    0.0000 </r>
       <r>   45.6035    0.0000 </r>
       <r>   46.5517    0.0000 </r>
       <r>   46.6818    0.0000 </r>
       <r>   47.2426    0.0000 </r>
       <r>   48.7184    0.0000 </r>
      </set>
      <set comment="kpoint 3">
       <r>  -17.7082    1.0000 </r>
       <r>  -17.5206    1.0000 </r>
       <r>  -16.9448    1.0000 </r>
       <r>  -16.9433    1.0000 </r>
       <r>  -15.2107    1.0000 </r>
       <r>  -15.1927    1.0000 </r>
       <r>  -15.0076    1.0000 </r>
       <r>  -14.9717    1.0000 </r>
       <r>  -14.9219    1.0000 </r>
       <r>  -14.9198    1.0000 </r>
       <r>  -11.2628    1.0000 </r>
       <r>  -10.2062    1.0000 </r>
       <r>   -9.8836    1.0000 </r>
       <r>   -8.9371    1.0000 </r>
       <r>    0.8414    1.0000 </r>
       <r>    1.9921    1.0000 </r>
       <r>    3.4092    1.0000 </r>
       <r>    4.3877    1.0000 </r>
       <r>    4.4270    1.0000 </r>
       <r>    4.9311    1.0000 </r>
       <r>    5.1120    1.0000 </r>
       <r>    5.5489    1.0000 </r>
       <r>    5.6686    1.0000 </r>
       <r>    5.7745    1.0000 </r>
       <r>    6.7226    1.0000 </r>
       <r>    6.9815    1.0000 </r>
       <r>   14.2070    0.0000 </r>
       <r>   15.0366    0.0000 </r>
       <r>   16.7645    0.0000 </r>
       <r>   16.9936    0.0000 </r>
       <r>   19.9602    0.0000 </r>
       <r>   20.8671    0.0000 </r>
       <r>   21.1776    0.0000 </r>
       <r>   21.3298    0.0000 </r>
       <r>   21.4552    0.0000 </r>
       <r>   22.6048    0.0000 </r>
       <r>   23.0628    0.0000 </r>
       <r>   23.9211    0.0000 </r>
       <r>   25.0754    0.0000 </r>
       <r>   25.6148    0.0000 </r>
       <r>   26.1522    0.0000 </r>
       <r>   26.5427    0.0000 </r>
       <r>   28.1922    0.0000 </r>
       <r>   29.2057    0.0000 </r>
       <r>   30.3352    0.0000 </r>
       <r>   31.7338    0.0000 </r>
       <r>   32.2272    0.0000 </r>
       <r>   32.8827    0.0000 </r>
       <r>   32.9695    0.0000 </r>
       <r>   34.3082    0.0000 </r>
       <r>   34.8013    0.0000 </r>
       <r>   35.9095    0.0000 </r>
       <r>   36.4460    0.0000 </r>
       <r>   36.7096    0.0000 </r>
       <r>   37.4726    0.0000 </r>
       <r>   37.6148    0.0000 </r>
       <r>   39.1025    0.0000 </r>
       <r>   39.6474    0.0000 </r>
       <r>   41.9474    0.0000 </r>
       <r>   41.9821    0.0000 </r>
       <r>   42.2144    0.0000 </r>
       <r>   42.4991    0.0000 </r>
       <r>   43.0032    0.0000 </r>
       <r>   44.9114    0.0000 </r>
       <r>   45.0142    0.0000 </r>
       <r>   45.0790    0.0000 </r>
       <r>   45.4669    0.0000 </r>
       <r>   47.1037    0.0000 </r>
       <r>   47.1847    0.0000 </r>
       <r>   47.5326    0.0000 </r>
       <r>   47.5854    0.0000 </r>
       <r>   47.7213    0.0000 </r>
      </set>
      <set comment="kpoint 4">
       <r>  -17.6452    1.0000 </r>
       <r>  -17.3464    1.0000 </r>
       <r>  -17.3464    1.0000 </r>
       <r>  -17.0585    1.0000 </r>
       <r>  -15.0406    1.0000 </r>
       <r>  -15.0319    1.0000 </r>
       <r>  -15.0115    1.0000 </r>
       <r>  -15.0115    1.0000 </r>
       <r>  -14.9875    1.0000 </r>
       <r>  -14.9318    1.0000 </r>
       <r>  -11.6788    1.0000 </r>
       <r>   -9.0638    1.0000 </r>
       <r>   -9.0638    1.0000 </r>
       <r>   -8.6504    1.0000 </r>
       <r>   -0.6253    1.0000 </r>
       <r>    2.9996    1.0000 </r>
       <r>    3.1743    1.0000 </r>
       <r>    3.8881    1.0000 </r>
       <r>    3.8881    1.0000 </r>
       <r>    4.2674    1.0000 </r>
       <r>    4.2674    1.0000 </r>
       <r>    4.2695    1.0000 </r>
       <r>    4.3999    1.0000 </r>
       <r>    6.7413    1.0000 </r>
       <r>    6.7413    1.0000 </r>
       <r>    7.2543    1.0000 </r>
       <r>   14.1559    0.0000 </r>
       <r>   17.0399    0.0000 </r>
       <r>   17.8348    0.0000 </r>
       <r>   17.8348    0.0000 </r>
       <r>   18.1330    0.0000 </r>
       <r>   20.7007    0.0000 </r>
       <r>   21.3130    0.0000 </r>
       <r>   21.3754    0.0000 </r>
       <r>   22.1263    0.0000 </r>
       <r>   22.1439    0.0000 </r>
       <r>   22.1439    0.0000 </r>
       <r>   24.0923    0.0000 </r>
       <r>   24.0923    0.0000 </r>
       <r>   24.9466    0.0000 </r>
       <r>   28.1815    0.0000 </r>
       <r>   28.6774    0.0000 </r>
       <r>   29.0171    0.0000 </r>
       <r>   30.9108    0.0000 </r>
       <r>   30.9108    0.0000 </r>
       <r>   32.5553    0.0000 </r>
       <r>   33.0040    0.0000 </r>
       <r>   33.0040    0.0000 </r>
       <r>   34.6216    0.0000 </r>
       <r>   34.6216    0.0000 </r>
       <r>   34.8430    0.0000 </r>
       <r>   35.4795    0.0000 </r>
       <r>   37.2462    0.0000 </r>
       <r>   37.8006    0.0000 </r>
       <r>   37.8006    0.0000 </r>
       <r>   38.6136    0.0000 </r>
       <r>   38.9628    0.0000 </r>
       <r>   39.1980    0.0000 </r>
       <r>   39.9300    0.0000 </r>
       <r>   40.1704    0.0000 </r>
       <r>   40.1704    0.0000 </r>
       <r>   41.9694    0.0000 </r>
       <r>   42.5735    0.0000 </r>
       <r>   42.5735    0.0000 </r>
       <r>   43.0066    0.0000 </r>
       <r>   43.4556    0.0000 </r>
       <r>   46.3050    0.0000 </r>
       <r>   46.4929    0.0000 </r>
       <r>   46.5100    0.0000 </r>
       <r>   46.5102    0.0000 </r>
       <r>   47.6907    0.0000 </r>
       <r>   47.6918    0.0000 </r>
      </set>
      <set comment="kpoint 5">
       <r>  -17.6489    1.0000 </r>
       <r>  -17.5099    1.0000 </r>
       <r>  -17.1997    1.0000 </r>
       <r>  -17.0440    1.0000 </r>
       <r>  -15.0591    1.0000 </r>
       <r>  -15.0453    1.0000 </r>
       <r>  -15.0071    1.0000 </r>
       <r>  -14.9767    1.0000 </r>
       <r>  -14.9737    1.0000 </r>
       <r>  -14.9467    1.0000 </r>
       <r>  -11.2562    1.0000 </r>
       <r>  -10.1167    1.0000 </r>
       <r>   -8.7601    1.0000 </r>
       <r>   -8.3853    1.0000 </r>
       <r>    0.2139    1.0000 </r>
       <r>    2.1570    1.0000 </r>
       <r>    2.3280    1.0000 </r>
       <r>    2.5427    1.0000 </r>
       <r>    3.8984    1.0000 </r>
       <r>    4.2359    1.0000 </r>
       <r>    5.1699    1.0000 </r>
       <r>    5.2731    1.0000 </r>
       <r>    5.3402    1.0000 </r>
       <r>    6.4114    1.0000 </r>
       <r>    6.6759    1.0000 </r>
       <r>    7.1335    1.0000 </r>
       <r>   15.0355    0.0000 </r>
       <r>   16.8047    0.0000 </r>
       <r>   18.0041    0.0000 </r>
       <r>   18.1056    0.0000 </r>
       <r>   18.8611    0.0000 </r>
       <r>   20.2775    0.0000 </r>
       <r>   20.3548    0.0000 </r>
       <r>   20.9150    0.0000 </r>
       <r>   21.4403    0.0000 </r>
       <r>   21.9852    0.0000 </r>
       <r>   22.1125    0.0000 </r>
       <r>   22.9742    0.0000 </r>
       <r>   24.1871    0.0000 </r>
       <r>   26.7805    0.0000 </r>
       <r>   27.8282    0.0000 </r>
       <r>   28.8374    0.0000 </r>
       <r>   29.6591    0.0000 </r>
       <r>   30.5824    0.0000 </r>
       <r>   31.0518    0.0000 </r>
       <r>   31.1622    0.0000 </r>
       <r>   31.7781    0.0000 </r>
       <r>   33.3169    0.0000 </r>
       <r>   34.0238    0.0000 </r>
       <r>   34.0882    0.0000 </r>
       <r>   35.3811    0.0000 </r>
       <r>   35.4529    0.0000 </r>
       <r>   35.7417    0.0000 </r>
       <r>   36.5518    0.0000 </r>
       <r>   38.6657    0.0000 </r>
       <r>   39.4352    0.0000 </r>
       <r>   40.0207    0.0000 </r>
       <r>   40.2355    0.0000 </r>
       <r>   40.9734    0.0000 </r>
       <r>   41.5720    0.0000 </r>
       <r>   41.5968    0.0000 </r>
       <r>   42.1467    0.0000 </r>
       <r>   42.5747    0.0000 </r>
       <r>   43.0739    0.0000 </r>
       <r>   44.2416    0.0000 </r>
       <r>   44.4599    0.0000 </r>
       <r>   44.8250    0.0000 </r>
       <r>   45.3495    0.0000 </r>
       <r>   47.9292    0.0000 </r>
       <r>   47.9741    0.0000 </r>
       <r>   48.5059    0.0000 </r>
       <r>   49.2771    0.0000 </r>
      </set>
      <set comment="kpoint 6">
       <r>  -17.5857    1.0000 </r>
       <r>  -17.3856    1.0000 </r>
       <r>  -17.3510    1.0000 </r>
       <r>  -17.1296    1.0000 </r>
       <r>  -15.0515    1.0000 </r>
       <r>  -15.0202    1.0000 </r>
       <r>  -15.0147    1.0000 </r>
       <r>  -14.9817    1.0000 </r>
       <r>  -14.9789    1.0000 </r>
       <r>  -14.9585    1.0000 </r>
       <r>  -10.8022    1.0000 </r>
       <r>   -9.9767    1.0000 </r>
       <r>   -9.1877    1.0000 </r>
       <r>   -8.6493    1.0000 </r>
       <r>    0.4563    1.0000 </r>
       <r>    1.0214    1.0000 </r>
       <r>    3.0443    1.0000 </r>
       <r>    3.2913    1.0000 </r>
       <r>    3.5251    1.0000 </r>
       <r>    4.2824    1.0000 </r>
       <r>    4.5947    1.0000 </r>
       <r>    5.6104    1.0000 </r>
       <r>    5.8481    1.0000 </r>
       <r>    6.3867    1.0000 </r>
       <r>    6.7080    1.0000 </r>
       <r>    7.0758    1.0000 </r>
       <r>   15.1970    0.0000 </r>
       <r>   16.1192    0.0000 </r>
       <r>   18.2700    0.0000 </r>
       <r>   18.4105    0.0000 </r>
       <r>   18.8217    0.0000 </r>
       <r>   20.4454    0.0000 </r>
       <r>   20.4674    0.0000 </r>
       <r>   20.8223    0.0000 </r>
       <r>   20.9430    0.0000 </r>
       <r>   21.8025    0.0000 </r>
       <r>   23.1722    0.0000 </r>
       <r>   23.2120    0.0000 </r>
       <r>   23.4338    0.0000 </r>
       <r>   25.9853    0.0000 </r>
       <r>   27.2502    0.0000 </r>
       <r>   27.5080    0.0000 </r>
       <r>   29.6074    0.0000 </r>
       <r>   29.9878    0.0000 </r>
       <r>   30.0077    0.0000 </r>
       <r>   31.3641    0.0000 </r>
       <r>   33.0420    0.0000 </r>
       <r>   33.7489    0.0000 </r>
       <r>   34.1358    0.0000 </r>
       <r>   35.4135    0.0000 </r>
       <r>   35.5509    0.0000 </r>
       <r>   36.6767    0.0000 </r>
       <r>   36.6897    0.0000 </r>
       <r>   37.0568    0.0000 </r>
       <r>   37.5672    0.0000 </r>
       <r>   37.8632    0.0000 </r>
       <r>   38.6122    0.0000 </r>
       <r>   40.7067    0.0000 </r>
       <r>   41.7336    0.0000 </r>
       <r>   42.2608    0.0000 </r>
       <r>   42.3908    0.0000 </r>
       <r>   42.8784    0.0000 </r>
       <r>   43.4653    0.0000 </r>
       <r>   43.7867    0.0000 </r>
       <r>   44.2642    0.0000 </r>
       <r>   44.5115    0.0000 </r>
       <r>   44.9614    0.0000 </r>
       <r>   46.7010    0.0000 </r>
       <r>   46.7252    0.0000 </r>
       <r>   47.4422    0.0000 </r>
       <r>   47.8229    0.0000 </r>
       <r>   48.7215    0.0000 </r>
      </set>
      <set comment="kpoint 7">
       <r>  -17.7030    1.0000 </r>
       <r>  -17.7030    1.0000 </r>
       <r>  -17.1622    1.0000 </r>
       <r>  -17.1622    1.0000 </r>
       <r>  -15.1003    1.0000 </r>
       <r>  -15.1003    1.0000 </r>
       <r>  -14.9646    1.0000 </r>
       <r>  -14.9646    1.0000 </r>
       <r>  -14.8031    1.0000 </r>
       <r>  -14.8031    1.0000 </r>
       <r>  -10.1219    1.0000 </r>
       <r>  -10.1219    1.0000 </r>
       <r>   -8.3892    1.0000 </r>
       <r>   -8.3892    1.0000 </r>
       <r>    0.4533    1.0000 </r>
       <r>    0.4533    1.0000 </r>
       <r>    3.1135    1.0000 </r>
       <r>    3.1135    1.0000 </r>
       <r>    3.2383    1.0000 </r>
       <r>    3.2383    1.0000 </r>
       <r>    4.6786    1.0000 </r>
       <r>    4.6786    1.0000 </r>
       <r>    5.6971    1.0000 </r>
       <r>    5.6971    1.0000 </r>
       <r>    6.2256    1.0000 </r>
       <r>    6.2256    1.0000 </r>
       <r>   16.7666    0.0000 </r>
       <r>   16.7666    0.0000 </r>
       <r>   18.7807    0.0000 </r>
       <r>   18.7807    0.0000 </r>
       <r>   19.9693    0.0000 </r>
       <r>   19.9693    0.0000 </r>
       <r>   20.9582    0.0000 </r>
       <r>   20.9582    0.0000 </r>
       <r>   21.1039    0.0000 </r>
       <r>   21.1039    0.0000 </r>
       <r>   23.0937    0.0000 </r>
       <r>   23.0937    0.0000 </r>
       <r>   23.8404    0.0000 </r>
       <r>   23.8404    0.0000 </r>
       <r>   29.9669    0.0000 </r>
       <r>   29.9669    0.0000 </r>
       <r>   30.5675    0.0000 </r>
       <r>   30.5675    0.0000 </r>
       <r>   31.7596    0.0000 </r>
       <r>   31.7596    0.0000 </r>
       <r>   33.5481    0.0000 </r>
       <r>   33.5481    0.0000 </r>
       <r>   34.4462    0.0000 </r>
       <r>   34.4462    0.0000 </r>
       <r>   36.3903    0.0000 </r>
       <r>   36.3903    0.0000 </r>
       <r>   38.0856    0.0000 </r>
       <r>   38.0856    0.0000 </r>
       <r>   38.2280    0.0000 </r>
       <r>   38.2280    0.0000 </r>
       <r>   38.8654    0.0000 </r>
       <r>   38.8654    0.0000 </r>
       <r>   39.8555    0.0000 </r>
       <r>   39.8555    0.0000 </r>
       <r>   40.2667    0.0000 </r>
       <r>   40.2667    0.0000 </r>
       <r>   42.0814    0.0000 </r>
       <r>   42.0814    0.0000 </r>
       <r>   44.7837    0.0000 </r>
       <r>   44.7837    0.0000 </r>
       <r>   46.5512    0.0000 </r>
       <r>   46.5512    0.0000 </r>
       <r>   47.0023    0.0000 </r>
       <r>   47.0023    0.0000 </r>
       <r>   48.0236    0.0000 </r>
       <r>   48.0314    0.0000 </r>
      </set>
      <set comment="kpoint 8">
       <r>  -17.8315    1.0000 </r>
       <r>  -17.8315    1.0000 </r>
       <r>  -17.0086    1.0000 </r>
       <r>  -17.0086    1.0000 </r>
       <r>  -15.1136    1.0000 </r>
       <r>  -15.1136    1.0000 </r>
       <r>  -14.9574    1.0000 </r>
       <r>  -14.9574    1.0000 </r>
       <r>  -14.7931    1.0000 </r>
       <r>  -14.7931    1.0000 </r>
       <r>  -10.1818    1.0000 </r>
       <r>  -10.1818    1.0000 </r>
       <r>   -8.3371    1.0000 </r>
       <r>   -8.3371    1.0000 </r>
       <r>    0.5659    1.0000 </r>
       <r>    0.5659    1.0000 </r>
       <r>    2.0811    1.0000 </r>
       <r>    2.0811    1.0000 </r>
       <r>    3.2361    1.0000 </r>
       <r>    3.2361    1.0000 </r>
       <r>    5.2430    1.0000 </r>
       <r>    5.2430    1.0000 </r>
       <r>    6.1886    1.0000 </r>
       <r>    6.1886    1.0000 </r>
       <r>    6.4443    1.0000 </r>
       <r>    6.4443    1.0000 </r>
       <r>   16.7726    0.0000 </r>
       <r>   16.7726    0.0000 </r>
       <r>   18.0644    0.0000 </r>
       <r>   18.0644    0.0000 </r>
       <r>   20.1503    0.0000 </r>
       <r>   20.1503    0.0000 </r>
       <r>   20.6510    0.0000 </r>
       <r>   20.6510    0.0000 </r>
       <r>   21.4017    0.0000 </r>
       <r>   21.4017    0.0000 </r>
       <r>   22.0855    0.0000 </r>
       <r>   22.0855    0.0000 </r>
       <r>   25.1051    0.0000 </r>
       <r>   25.1051    0.0000 </r>
       <r>   29.9295    0.0000 </r>
       <r>   29.9295    0.0000 </r>
       <r>   30.8131    0.0000 </r>
       <r>   30.8131    0.0000 </r>
       <r>   31.6004    0.0000 </r>
       <r>   31.6004    0.0000 </r>
       <r>   32.5947    0.0000 </r>
       <r>   32.5947    0.0000 </r>
       <r>   34.6821    0.0000 </r>
       <r>   34.6821    0.0000 </r>
       <r>   34.9669    0.0000 </r>
       <r>   34.9669    0.0000 </r>
       <r>   36.9106    0.0000 </r>
       <r>   36.9106    0.0000 </r>
       <r>   37.9389    0.0000 </r>
       <r>   37.9389    0.0000 </r>
       <r>   38.7995    0.0000 </r>
       <r>   38.7995    0.0000 </r>
       <r>   40.8318    0.0000 </r>
       <r>   40.8318    0.0000 </r>
       <r>   42.8094    0.0000 </r>
       <r>   42.8094    0.0000 </r>
       <r>   43.4710    0.0000 </r>
       <r>   43.4710    0.0000 </r>
       <r>   45.9025    0.0000 </r>
       <r>   45.9026    0.0000 </r>
       <r>   46.8332    0.0000 </r>
       <r>   46.8338    0.0000 </r>
       <r>   48.2515    0.0000 </r>
       <r>   48.2601    0.0000 </r>
       <r>   49.0158    0.0000 </r>
       <r>   49.3293    0.0000 </r>
      </set>
      <set comment="kpoint 9">
       <r>  -17.8349    1.0000 </r>
       <r>  -17.7106    1.0000 </r>
       <r>  -17.1702    1.0000 </r>
       <r>  -17.0124    1.0000 </r>
       <r>  -15.1118    1.0000 </r>
       <r>  -15.1070    1.0000 </r>
       <r>  -14.9572    1.0000 </r>
       <r>  -14.9537    1.0000 </r>
       <r>  -14.8026    1.0000 </r>
       <r>  -14.7932    1.0000 </r>
       <r>  -10.0992    1.0000 </r>
       <r>   -9.9340    1.0000 </r>
       <r>   -8.4885    1.0000 </r>
       <r>   -8.3709    1.0000 </r>
       <r>   -0.3818    1.0000 </r>
       <r>    0.0175    1.0000 </r>
       <r>    2.2849    1.0000 </r>
       <r>    2.3209    1.0000 </r>
       <r>    3.0174    1.0000 </r>
       <r>    4.5184    1.0000 </r>
       <r>    4.7382    1.0000 </r>
       <r>    5.7326    1.0000 </r>
       <r>    6.4744    1.0000 </r>
       <r>    6.5001    1.0000 </r>
       <r>    6.5143    1.0000 </r>
       <r>    6.6783    1.0000 </r>
       <r>   15.4569    0.0000 </r>
       <r>   15.7275    0.0000 </r>
       <r>   17.9271    0.0000 </r>
       <r>   18.5490    0.0000 </r>
       <r>   20.3876    0.0000 </r>
       <r>   20.4375    0.0000 </r>
       <r>   20.4400    0.0000 </r>
       <r>   21.0690    0.0000 </r>
       <r>   21.3867    0.0000 </r>
       <r>   21.6257    0.0000 </r>
       <r>   21.9893    0.0000 </r>
       <r>   22.6240    0.0000 </r>
       <r>   23.9419    0.0000 </r>
       <r>   27.3947    0.0000 </r>
       <r>   27.6195    0.0000 </r>
       <r>   28.3502    0.0000 </r>
       <r>   28.8992    0.0000 </r>
       <r>   31.0047    0.0000 </r>
       <r>   32.0001    0.0000 </r>
       <r>   32.3599    0.0000 </r>
       <r>   33.0149    0.0000 </r>
       <r>   34.0203    0.0000 </r>
       <r>   34.1763    0.0000 </r>
       <r>   34.3039    0.0000 </r>
       <r>   35.4169    0.0000 </r>
       <r>   35.8734    0.0000 </r>
       <r>   36.2511    0.0000 </r>
       <r>   36.6576    0.0000 </r>
       <r>   36.8427    0.0000 </r>
       <r>   38.9900    0.0000 </r>
       <r>   40.5095    0.0000 </r>
       <r>   40.5707    0.0000 </r>
       <r>   40.9474    0.0000 </r>
       <r>   41.6537    0.0000 </r>
       <r>   42.9859    0.0000 </r>
       <r>   43.0758    0.0000 </r>
       <r>   43.6284    0.0000 </r>
       <r>   43.8534    0.0000 </r>
       <r>   44.4493    0.0000 </r>
       <r>   45.0413    0.0000 </r>
       <r>   45.9131    0.0000 </r>
       <r>   46.9193    0.0000 </r>
       <r>   48.3271    0.0000 </r>
       <r>   48.3965    0.0000 </r>
       <r>   48.4414    0.0000 </r>
       <r>   49.5762    0.0000 </r>
      </set>
     </set>
    </set>
   </array>
  </eigenvalues>
  <separator name="orbital magnetization" >
   <v name="MAGDIPOLOUT">      0.00000000      0.00000000      0.00000000</v>
  </separator>
  <dos>
   <i name="efermi">      8.74874883 </i>
   <total>
    <array>
     <dimension dim="1">gridpoints</dimension>
     <dimension dim="2">spin</dimension>
     <field>energy</field>
     <field>total</field>
     <field>integrated</field>
     <set>
      <set comment="spin 1">
       <r>   -20.0000     0.0000     0.0000 </r>
       <r>   -19.9600     0.0000     0.0000 </r>
       <r>   -19.9199     0.0000     0.0000 </r>
       <r>   -19.8799     0.0000     0.0000 </r>
       <r>   -19.8398     0.0000     0.0000 </r>
       <r>   -19.7998     0.0000     0.0000 </r>
       <r>   -19.7598     0.0000     0.0000 </r>
       <r>   -19.7197     0.0000     0.0000 </r>
       <r>   -19.6797     0.0000     0.0000 </r>
       <r>   -19.6396     0.0000     0.0000 </r>
       <r>   -19.5996     0.0000     0.0000 </r>
       <r>   -19.5596     0.0000     0.0000 </r>
       <r>   -19.5195     0.0000     0.0000 </r>
       <r>   -19.4795     0.0000     0.0000 </r>
       <r>   -19.4394     0.0000     0.0000 </r>
       <r>   -19.3994     0.0000     0.0000 </r>
       <r>   -19.3594     0.0000     0.0000 </r>
       <r>   -19.3193     0.0000     0.0000 </r>
       <r>   -19.2793     0.0000     0.0000 </r>
       <r>   -19.2392     0.0000     0.0000 </r>
       <r>   -19.1992     0.0000     0.0000 </r>
       <r>   -19.1592     0.0000     0.0000 </r>
       <r>   -19.1191     0.0000     0.0000 </r>
       <r>   -19.0791     0.0000     0.0000 </r>
       <r>   -19.0390     0.0000     0.0000 </r>
       <r>   -18.9990     0.0000     0.0000 </r>
       <r>   -18.9590     0.0000     0.0000 </r>
       <r>   -18.9189     0.0000     0.0000 </r>
       <r>   -18.8789     0.0000     0.0000 </r>
       <r>   -18.8388     0.0000     0.0000 </r>
       <r>   -18.7988     0.0000     0.0000 </r>
       <r>   -18.7588     0.0000     0.0000 </r>
       <r>   -18.7187     0.0000     0.0000 </r>
       <r>   -18.6787     0.0000     0.0000 </r>
       <r>   -18.6386     0.0000     0.0000 </r>
       <r>   -18.5986     0.0000     0.0000 </r>
       <r>   -18.5586     0.0000     0.0000 </r>
       <r>   -18.5185     0.0000     0.0000 </r>
       <r>   -18.4785     0.0001     0.0000 </r>
       <r>   -18.4384     0.0002     0.0000 </r>
       <r>   -18.3984     0.0005     0.0000 </r>
       <r>   -18.3584     0.0015     0.0001 </r>
       <r>   -18.3183     0.0037     0.0002 </r>
       <r>   -18.2783     0.0087     0.0006 </r>
       <r>   -18.2382     0.0195     0.0014 </r>
       <r>   -18.1982     0.0408     0.0030 </r>
       <r>   -18.1582     0.0804     0.0062 </r>
       <r>   -18.1181     0.1488     0.0122 </r>
       <r>   -18.0781     0.2589     0.0225 </r>
       <r>   -18.0380     0.4240     0.0395 </r>
       <r>   -17.9980     0.6539     0.0657 </r>
       <r>   -17.9580     0.9515     0.1038 </r>
       <r>   -17.9179     1.3092     0.1562 </r>
       <r>   -17.8779     1.7084     0.2246 </r>
       <r>   -17.8378     2.1224     0.3096 </r>
       <r>   -17.7978     2.5210     0.4106 </r>
       <r>   -17.7578     2.8768     0.5257 </r>
       <r>   -17.7177     3.1700     0.6527 </r>
       <r>   -17.6777     3.3905     0.7884 </r>
       <r>   -17.6376     3.5385     0.9301 </r>
       <r>   -17.5976     3.6228     1.0752 </r>
       <r>   -17.5576     3.6576     1.2216 </r>
       <r>   -17.5175     3.6585     1.3681 </r>
       <r>   -17.4775     3.6392     1.5138 </r>
       <r>   -17.4374     3.6096     1.6583 </r>
       <r>   -17.3974     3.5775     1.8016 </r>
       <r>   -17.3574     3.5514     1.9438 </r>
       <r>   -17.3173     3.5436     2.0857 </r>
       <r>   -17.2773     3.5692     2.2286 </r>
       <r>   -17.2372     3.6410     2.3744 </r>
       <r>   -17.1972     3.7612     2.5250 </r>
       <r>   -17.1572     3.9151     2.6817 </r>
       <r>   -17.1171     4.0693     2.8447 </r>
       <r>   -17.0771     4.1763     3.0119 </r>
       <r>   -17.0370     4.1846     3.1794 </r>
       <r>   -16.9970     4.0527     3.3417 </r>
       <r>   -16.9570     3.7618     3.4923 </r>
       <r>   -16.9169     3.3235     3.6254 </r>
       <r>   -16.8769     2.7793     3.7367 </r>
       <r>   -16.8368     2.1900     3.8244 </r>
       <r>   -16.7968     1.6200     3.8892 </r>
       <r>   -16.7568     1.1219     3.9341 </r>
       <r>   -16.7167     0.7255     3.9632 </r>
       <r>   -16.6767     0.4374     3.9807 </r>
       <r>   -16.6366     0.2454     3.9905 </r>
       <r>   -16.5966     0.1280     3.9957 </r>
       <r>   -16.5566     0.0620     3.9981 </r>
       <r>   -16.5165     0.0279     3.9993 </r>
       <r>   -16.4765     0.0116     3.9997 </r>
       <r>   -16.4364     0.0045     3.9999 </r>
       <r>   -16.3964     0.0016     4.0000 </r>
       <r>   -16.3564     0.0005     4.0000 </r>
       <r>   -16.3163     0.0002     4.0000 </r>
       <r>   -16.2763     0.0000     4.0000 </r>
       <r>   -16.2362     0.0000     4.0000 </r>
       <r>   -16.1962     0.0000     4.0000 </r>
       <r>   -16.1562     0.0000     4.0000 </r>
       <r>   -16.1161     0.0000     4.0000 </r>
       <r>   -16.0761     0.0000     4.0000 </r>
       <r>   -16.0360     0.0000     4.0000 </r>
       <r>   -15.9960     0.0000     4.0000 </r>
       <r>   -15.9560     0.0000     4.0000 </r>
       <r>   -15.9159     0.0000     4.0000 </r>
       <r>   -15.8759     0.0000     4.0000 </r>
       <r>   -15.8358     0.0000     4.0000 </r>
       <r>   -15.7958     0.0001     4.0000 </r>
       <r>   -15.7558     0.0005     4.0000 </r>
       <r>   -15.7157     0.0014     4.0001 </r>
       <r>   -15.6757     0.0039     4.0002 </r>
       <r>   -15.6356     0.0102     4.0006 </r>
       <r>   -15.5956     0.0247     4.0016 </r>
       <r>   -15.5556     0.0559     4.0039 </r>
       <r>   -15.5155     0.1183     4.0086 </r>
       <r>   -15.4755     0.2349     4.0180 </r>
       <r>   -15.4354     0.4390     4.0356 </r>
       <r>   -15.3954     0.7745     4.0666 </r>
       <r>   -15.3554     1.2943     4.1184 </r>
       <r>   -15.3153     2.0551     4.2007 </r>
       <r>   -15.2753     3.1080     4.3252 </r>
       <r>   -15.2352     4.4821     4.5046 </r>
       <r>   -15.1952     6.1641     4.7514 </r>
       <r>   -15.1552     8.0762     5.0748 </r>
       <r>   -15.1151    10.0617     5.4777 </r>
       <r>   -15.0751    11.8926     5.9539 </r>
       <r>   -15.0350    13.3060     6.4866 </r>
       <r>   -14.9950    14.0652     7.0498 </r>
       <r>   -14.9550    14.0285     7.6115 </r>
       <r>   -14.9149    13.1947     8.1398 </r>
       <r>   -14.8749    11.7063     8.6085 </r>
       <r>   -14.8348     9.8069     9.0012 </r>
       <r>   -14.7948     7.7711     9.3124 </r>
       <r>   -14.7548     5.8372     9.5461 </r>
       <r>   -14.7147     4.1652     9.7129 </r>
       <r>   -14.6747     2.8285     9.8261 </r>
       <r>   -14.6346     1.8295     9.8994 </r>
       <r>   -14.5946     1.1267     9.9445 </r>
       <r>   -14.5546     0.6595     9.9709 </r>
       <r>   -14.5145     0.3660     9.9855 </r>
       <r>   -14.4745     0.1919     9.9932 </r>
       <r>   -14.4344     0.0947     9.9970 </r>
[...]
       <r>     4.5846     2.1448    19.9303 </r>
       <r>     4.6246     2.0230    20.0113 </r>
       <r>     4.6647     1.8767    20.0864 </r>
       <r>     4.7047     1.7130    20.1550 </r>
       <r>     4.7447     1.5510    20.2171 </r>
       <r>     4.7848     1.4161    20.2738 </r>
       <r>     4.8248     1.3319    20.3271 </r>
       <r>     4.8649     1.3134    20.3797 </r>
       <r>     4.9049     1.3636    20.4343 </r>
       <r>     4.9449     1.4749    20.4934 </r>
       <r>     4.9850     1.6341    20.5588 </r>
       <r>     5.0250     1.8268    20.6320 </r>
       <r>     5.0651     2.0394    20.7136 </r>
       <r>     5.1051     2.2565    20.8040 </r>
       <r>     5.1451     2.4579    20.9024 </r>
       <r>     5.1852     2.6179    21.0072 </r>
       <r>     5.2252     2.7094    21.1157 </r>
       <r>     5.2653     2.7130    21.2243 </r>
       <r>     5.3053     2.6274    21.3295 </r>
       <r>     5.3453     2.4754    21.4286 </r>
       <r>     5.3854     2.3012    21.5208 </r>
       <r>     5.4254     2.1593    21.6072 </r>
       <r>     5.4655     2.0973    21.6912 </r>
       <r>     5.5055     2.1403    21.7769 </r>
       <r>     5.5455     2.2823    21.8683 </r>
       <r>     5.5856     2.4885    21.9679 </r>
       <r>     5.6256     2.7063    22.0763 </r>
       <r>     5.6657     2.8810    22.1916 </r>
       <r>     5.7057     2.9703    22.3106 </r>
       <r>     5.7457     2.9521    22.4288 </r>
       <r>     5.7858     2.8255    22.5419 </r>
       <r>     5.8258     2.6073    22.6463 </r>
       <r>     5.8659     2.3255    22.7394 </r>
       <r>     5.9059     2.0149    22.8201 </r>
       <r>     5.9459     1.7118    22.8886 </r>
       <r>     5.9860     1.4507    22.9467 </r>
       <r>     6.0260     1.2598    22.9972 </r>
       <r>     6.0661     1.1572    23.0435 </r>
       <r>     6.1061     1.1494    23.0895 </r>
       <r>     6.1461     1.2328    23.1389 </r>
       <r>     6.1862     1.3982    23.1949 </r>
       <r>     6.2262     1.6335    23.2603 </r>
       <r>     6.2663     1.9245    23.3373 </r>
       <r>     6.3063     2.2515    23.4275 </r>
       <r>     6.3463     2.5862    23.5310 </r>
       <r>     6.3864     2.8928    23.6469 </r>
       <r>     6.4264     3.1365    23.7724 </r>
       <r>     6.4665     3.2946    23.9044 </r>
       <r>     6.5065     3.3645    24.0391 </r>
       <r>     6.5465     3.3622    24.1737 </r>
       <r>     6.5866     3.3106    24.3063 </r>
       <r>     6.6266     3.2259    24.4354 </r>
       <r>     6.6667     3.1106    24.5600 </r>
       <r>     6.7067     2.9578    24.6784 </r>
       <r>     6.7467     2.7639    24.7891 </r>
       <r>     6.7868     2.5410    24.8908 </r>
       <r>     6.8268     2.3184    24.9836 </r>
       <r>     6.8669     2.1333    25.0690 </r>
       <r>     6.9069     2.0148    25.1497 </r>
       <r>     6.9469     1.9702    25.2286 </r>
       <r>     6.9870     1.9817    25.3080 </r>
       <r>     7.0270     2.0130    25.3886 </r>
       <r>     7.0671     2.0237    25.4696 </r>
       <r>     7.1071     1.9828    25.5490 </r>
       <r>     7.1471     1.8772    25.6241 </r>
       <r>     7.1872     1.7125    25.6927 </r>
       <r>     7.2272     1.5074    25.7531 </r>
       <r>     7.2673     1.2848    25.8045 </r>
       <r>     7.3073     1.0646    25.8471 </r>
       <r>     7.3473     0.8597    25.8816 </r>
       <r>     7.3874     0.6763    25.9086 </r>
       <r>     7.4274     0.5162    25.9293 </r>
       <r>     7.4675     0.3798    25.9445 </r>
       <r>     7.5075     0.2677    25.9552 </r>
       <r>     7.5475     0.1800    25.9624 </r>
       <r>     7.5876     0.1161    25.9671 </r>
       <r>     7.6276     0.0739    25.9700 </r>
       <r>     7.6677     0.0503    25.9721 </r>
       <r>     7.7077     0.0413    25.9737 </r>
       <r>     7.7477     0.0429    25.9754 </r>
       <r>     7.7878     0.0510    25.9775 </r>
       <r>     7.8278     0.0617    25.9799 </r>
       <r>     7.8679     0.0714    25.9828 </r>
       <r>     7.9079     0.0773    25.9859 </r>
       <r>     7.9479     0.0776    25.9890 </r>
       <r>     7.9880     0.0720    25.9919 </r>
       <r>     8.0280     0.0617    25.9944 </r>
       <r>     8.0681     0.0488    25.9963 </r>
       <r>     8.1081     0.0357    25.9977 </r>
       <r>     8.1481     0.0241    25.9987 </r>
       <r>     8.1882     0.0150    25.9993 </r>
       <r>     8.2282     0.0086    25.9997 </r>
       <r>     8.2683     0.0046    25.9998 </r>
       <r>     8.3083     0.0023    25.9999 </r>
       <r>     8.3483     0.0010    26.0000 </r>
       <r>     8.3884     0.0004    26.0000 </r>
       <r>     8.4284     0.0002    26.0000 </r>
       <r>     8.4685     0.0001    26.0000 </r>
       <r>     8.5085     0.0000    26.0000 </r>
       <r>     8.5485     0.0000    26.0000 </r>
       <r>     8.5886     0.0000    26.0000 </r>
       <r>     8.6286     0.0000    26.0000 </r>
       <r>     8.6687     0.0000    26.0000 </r>
       <r>     8.7087     0.0000    26.0000 </r>
       <r>     8.7487     0.0000    26.0000 </r>
       <r>     8.7888     0.0000    26.0000 </r>
       <r>     8.8288     0.0000    26.0000 </r>
       <r>     8.8689     0.0000    26.0000 </r>
       <r>     8.9089     0.0000    26.0000 </r>
       <r>     8.9489     0.0000    26.0000 </r>
       <r>     8.9890     0.0000    26.0000 </r>
       <r>     9.0290     0.0000    26.0000 </r>
       <r>     9.0691     0.0000    26.0000 </r>
       <r>     9.1091     0.0000    26.0000 </r>
       <r>     9.1491     0.0000    26.0000 </r>
       <r>     9.1892     0.0000    26.0000 </r>
       <r>     9.2292     0.0000    26.0000 </r>
       <r>     9.2693     0.0000    26.0000 </r>
       <r>     9.3093     0.0000    26.0000 </r>
       <r>     9.3493     0.0000    26.0000 </r>
       <r>     9.3894     0.0000    26.0000 </r>
       <r>     9.4294     0.0000    26.0000 </r>
       <r>     9.4695     0.0000    26.0000 </r>
       <r>     9.5095     0.0000    26.0000 </r>
       <r>     9.5495     0.0000    26.0000 </r>
       <r>     9.5896     0.0000    26.0000 </r>
       <r>     9.6296     0.0000    26.0000 </r>
       <r>     9.6697     0.0000    26.0000 </r>
       <r>     9.7097     0.0000    26.0000 </r>
       <r>     9.7497     0.0000    26.0000 </r>
       <r>     9.7898     0.0000    26.0000 </r>
       <r>     9.8298     0.0000    26.0000 </r>
       <r>     9.8699     0.0000    26.0000 </r>
       <r>     9.9099     0.0000    26.0000 </r>
       <r>     9.9499     0.0000    26.0000 </r>
       <r>     9.9900     0.0000    26.0000 </r>
       <r>    10.0300     0.0000    26.0000 </r>
       <r>    10.0701     0.0000    26.0000 </r>
       <r>    10.1101     0.0000    26.0000 </r>
       <r>    10.1502     0.0000    26.0000 </r>
       <r>    10.1902     0.0000    26.0000 </r>
       <r>    10.2302     0.0000    26.0000 </r>
       <r>    10.2703     0.0000    26.0000 </r>
       <r>    10.3103     0.0000    26.0000 </r>
       <r>    10.3504     0.0000    26.0000 </r>
       <r>    10.3904     0.0000    26.0000 </r>
       <r>    10.4304     0.0000    26.0000 </r>
       <r>    10.4705     0.0000    26.0000 </r>
       <r>    10.5105     0.0000    26.0000 </r>
       <r>    10.5506     0.0000    26.0000 </r>
       <r>    10.5906     0.0000    26.0000 </r>
       <r>    10.6306     0.0000    26.0000 </r>
       <r>    10.6707     0.0000    26.0000 </r>
       <r>    10.7107     0.0000    26.0000 </r>
       <r>    10.7508     0.0000    26.0000 </r>
       <r>    10.7908     0.0000    26.0000 </r>
       <r>    10.8308     0.0000    26.0000 </r>
       <r>    10.8709     0.0000    26.0000 </r>
       <r>    10.9109     0.0000    26.0000 </r>
       <r>    10.9510     0.0000    26.0000 </r>
       <r>    10.9910     0.0000    26.0000 </r>
       <r>    11.0310     0.0000    26.0000 </r>
       <r>    11.0711     0.0000    26.0000 </r>
       <r>    11.1111     0.0000    26.0000 </r>
       <r>    11.1512     0.0000    26.0000 </r>
       <r>    11.1912     0.0000    26.0000 </r>
       <r>    11.2312     0.0000    26.0000 </r>
       <r>    11.2713     0.0001    26.0000 </r>
       <r>    11.3113     0.0003    26.0000 </r>
       <r>    11.3514     0.0008    26.0001 </r>
       <r>    11.3914     0.0018    26.0001 </r>
       <r>    11.4314     0.0038    26.0003 </r>
       <r>    11.4715     0.0073    26.0006 </r>
       <r>    11.5115     0.0130    26.0011 </r>
       <r>    11.5516     0.0213    26.0019 </r>
       <r>    11.5916     0.0322    26.0032 </r>
       <r>    11.6316     0.0451    26.0050 </r>
       <r>    11.6717     0.0582    26.0074 </r>
       <r>    11.7117     0.0695    26.0102 </r>
       <r>    11.7518     0.0765    26.0132 </r>
       <r>    11.7918     0.0778    26.0163 </r>
       <r>    11.8318     0.0731    26.0193 </r>
       <r>    11.8719     0.0634    26.0218 </r>
       <r>    11.9119     0.0508    26.0238 </r>
       <r>    11.9520     0.0376    26.0253 </r>
       <r>    11.9920     0.0257    26.0264 </r>
       <r>    12.0320     0.0162    26.0270 </r>
       <r>    12.0721     0.0094    26.0274 </r>
       <r>    12.1121     0.0051    26.0276 </r>
       <r>    12.1522     0.0025    26.0277 </r>
       <r>    12.1922     0.0012    26.0277 </r>
       <r>    12.2322     0.0005    26.0278 </r>
       <r>    12.2723     0.0002    26.0278 </r>
       <r>    12.3123     0.0001    26.0278 </r>
       <r>    12.3524     0.0000    26.0278 </r>
       <r>    12.3924     0.0000    26.0278 </r>
       <r>    12.4324     0.0000    26.0278 </r>
       <r>    12.4725     0.0000    26.0278 </r>
       <r>    12.5125     0.0000    26.0278 </r>
       <r>    12.5526     0.0000    26.0278 </r>
       <r>    12.5926     0.0000    26.0278 </r>
       <r>    12.6326     0.0000    26.0278 </r>
       <r>    12.6727     0.0000    26.0278 </r>
       <r>    12.7127     0.0000    26.0278 </r>
       <r>    12.7528     0.0000    26.0278 </r>
       <r>    12.7928     0.0000    26.0278 </r>
       <r>    12.8328     0.0000    26.0278 </r>
       <r>    12.8729     0.0000    26.0278 </r>
       <r>    12.9129     0.0001    26.0278 </r>
       <r>    12.9530     0.0004    26.0278 </r>
       <r>    12.9930     0.0011    26.0278 </r>
       <r>    13.0330     0.0027    26.0280 </r>
       <r>    13.0731     0.0061    26.0282 </r>
       <r>    13.1131     0.0130    26.0287 </r>
       <r>    13.1532     0.0255    26.0297 </r>
       <r>    13.1932     0.0461    26.0316 </r>
       <r>    13.2332     0.0769    26.0347 </r>
       <r>    13.2733     0.1185    26.0394 </r>
       <r>    13.3133     0.1687    26.0462 </r>
       <r>    13.3534     0.2218    26.0550 </r>
       <r>    13.3934     0.2692    26.0658 </r>
       <r>    13.4334     0.3017    26.0779 </r>
       <r>    13.4735     0.3123    26.0904 </r>
       <r>    13.5135     0.2986    26.1024 </r>
       <r>    13.5536     0.2636    26.1129 </r>
       <r>    13.5936     0.2149    26.1215 </r>
       <r>    13.6336     0.1619    26.1280 </r>
       <r>    13.6737     0.1129    26.1325 </r>
       <r>    13.7137     0.0734    26.1355 </r>
       <r>    13.7538     0.0458    26.1373 </r>
       <r>    13.7938     0.0305    26.1385 </r>
       <r>    13.8338     0.0271    26.1396 </r>
       <r>    13.8739     0.0358    26.1410 </r>
       <r>    13.9139     0.0582    26.1434 </r>
       <r>    13.9540     0.0959    26.1472 </r>
       <r>    13.9940     0.1501    26.1532 </r>
       <r>    14.0340     0.2187    26.1620 </r>
       <r>    14.0741     0.2955    26.1738 </r>
       <r>    14.1141     0.3697    26.1886 </r>
       <r>    14.1542     0.4282    26.2058 </r>
       <r>    14.1942     0.4591    26.2241 </r>
       <r>    14.2342     0.4556    26.2424 </r>
       <r>    14.2743     0.4184    26.2591 </r>
       <r>    14.3143     0.3556    26.2734 </r>
       <r>    14.3544     0.2797    26.2846 </r>
       <r>    14.3944     0.2036    26.2927 </r>
       <r>    14.4344     0.1371    26.2982 </r>
       <r>    14.4745     0.0856    26.3016 </r>
       <r>    14.5145     0.0498    26.3036 </r>
       <r>    14.5546     0.0280    26.3048 </r>
       <r>    14.5946     0.0177    26.3055 </r>
       <r>    14.6346     0.0175    26.3062 </r>
       <r>    14.6747     0.0285    26.3073 </r>
       <r>    14.7147     0.0547    26.3095 </r>
       <r>    14.7548     0.1033    26.3136 </r>
       <r>    14.7948     0.1832    26.3210 </r>
       <r>    14.8348     0.3024    26.3331 </r>
       <r>    14.8749     0.4650    26.3517 </r>
       <r>    14.9149     0.6672    26.3784 </r>
       <r>    14.9550     0.8964    26.4143 </r>
       <r>    14.9950     1.1315    26.4596 </r>
       <r>    15.0350     1.3469    26.5135 </r>
       <r>    15.0751     1.5178    26.5743 </r>
       <r>    15.1151     1.6248    26.6394 </r>
       <r>    15.1552     1.6570    26.7057 </r>
       <r>    15.1952     1.6139    26.7703 </r>
       <r>    15.2352     1.5051    26.8306 </r>
       <r>    15.2753     1.3488    26.8846 </r>
       <r>    15.3153     1.1686    26.9314 </r>
       <r>    15.3554     0.9882    26.9710 </r>
       <r>    15.3954     0.8266    27.0041 </r>
       <r>    15.4354     0.6947    27.0319 </r>
       <r>    15.4755     0.5961    27.0557 </r>
       <r>    15.5155     0.5294    27.0769 </r>
       <r>    15.5556     0.4913    27.0966 </r>
       <r>    15.5956     0.4776    27.1157 </r>
       <r>    15.6356     0.4823    27.1350 </r>
       <r>    15.6757     0.4972    27.1550 </r>
       <r>    15.7157     0.5120    27.1755 </r>
       <r>    15.7558     0.5178    27.1962 </r>
       <r>    15.7958     0.5106    27.2166 </r>
       <r>    15.8358     0.4946    27.2364 </r>
       <r>    15.8759     0.4819    27.2557 </r>
       <r>    15.9159     0.4885    27.2753 </r>
       <r>    15.9560     0.5286    27.2965 </r>
       <r>    15.9960     0.6083    27.3208 </r>
       <r>    16.0360     0.7219    27.3497 </r>
       <r>    16.0761     0.8525    27.3839 </r>
       <r>    16.1161     0.9759    27.4229 </r>
       <r>    16.1562     1.0670    27.4657 </r>
       <r>    16.1962     1.1063    27.5099 </r>
       <r>    16.2362     1.0845    27.5534 </r>
       <r>    16.2763     1.0043    27.5936 </r>
       <r>    16.3163     0.8795    27.6288 </r>
       <r>    16.3564     0.7314    27.6581 </r>
       <r>    16.3964     0.5854    27.6815 </r>
       <r>    16.4364     0.4675    27.7002 </r>
       <r>    16.4765     0.4014    27.7163 </r>
       <r>    16.5165     0.4066    27.7326 </r>
       <r>    16.5566     0.4951    27.7524 </r>
       <r>    16.5966     0.6684    27.7792 </r>
       <r>    16.6366     0.9125    27.8157 </r>
       <r>    16.6767     1.1967    27.8636 </r>
       <r>    16.7167     1.4759    27.9227 </r>
       <r>    16.7568     1.7007    27.9908 </r>
       <r>    16.7968     1.8306    28.0641 </r>
       <r>    16.8368     1.8458    28.1380 </r>
       <r>    16.8769     1.7526    28.2082 </r>
       <r>    16.9169     1.5779    28.2714 </r>
       <r>    16.9570     1.3580    28.3258 </r>
       <r>    16.9970     1.1261    28.3709 </r>
       <r>    17.0370     0.9051    28.4071 </r>
       <r>    17.0771     0.7065    28.4354 </r>
       <r>    17.1171     0.5343    28.4568 </r>
       <r>    17.1572     0.3890    28.4724 </r>
       <r>    17.1972     0.2706    28.4832 </r>
       <r>    17.2372     0.1784    28.4903 </r>
       <r>    17.2773     0.1108    28.4948 </r>
       <r>    17.3173     0.0646    28.4974 </r>
       <r>    17.3574     0.0356    28.4988 </r>
       <r>    17.3974     0.0195    28.4996 </r>
       <r>    17.4374     0.0130    28.5001 </r>
       <r>    17.4775     0.0144    28.5007 </r>
       <r>    17.5175     0.0245    28.5016 </r>
       <r>    17.5576     0.0462    28.5035 </r>
       <r>    17.5976     0.0849    28.5069 </r>
       <r>    17.6376     0.1475    28.5128 </r>
       <r>    17.6777     0.2417    28.5225 </r>
       <r>    17.7177     0.3749    28.5375 </r>
       <r>    17.7578     0.5523    28.5596 </r>
       <r>    17.7978     0.7757    28.5907 </r>
       <r>    17.8378     1.0414    28.6324 </r>
       <r>    17.8779     1.3389    28.6860 </r>
       <r>    17.9179     1.6494    28.7520 </r>
       <r>    17.9580     1.9462    28.8299 </r>
       <r>    17.9980     2.1982    28.9180 </r>
       <r>    18.0380     2.3761    29.0131 </r>
       <r>    18.0781     2.4607    29.1116 </r>
       <r>    18.1181     2.4488    29.2097 </r>
       <r>    18.1582     2.3550    29.3040 </r>
       <r>    18.1982     2.2066    29.3923 </r>
       <r>    18.2382     2.0346    29.4738 </r>
       <r>    18.2783     1.8642    29.5484 </r>
       <r>    18.3183     1.7092    29.6169 </r>
       <r>    18.3584     1.5716    29.6798 </r>
       <r>    18.3984     1.4457    29.7377 </r>
       <r>    18.4384     1.3248    29.7907 </r>
       <r>    18.4785     1.2071    29.8391 </r>
       <r>    18.5185     1.0983    29.8830 </r>
       <r>    18.5586     1.0121    29.9236 </r>
       <r>    18.5986     0.9656    29.9622 </r>
       <r>    18.6386     0.9735    30.0012 </r>
       <r>    18.6787     1.0397    30.0428 </r>
       <r>    18.7187     1.1526    30.0890 </r>
       <r>    18.7588     1.2838    30.1404 </r>
       <r>    18.7988     1.3944    30.1962 </r>
       <r>    18.8388     1.4464    30.2541 </r>
       <r>    18.8789     1.4156    30.3108 </r>
       <r>    18.9189     1.2993    30.3628 </r>
       <r>    18.9590     1.1163    30.4075 </r>
       <r>    18.9990     0.8990    30.4435 </r>
       <r>    19.0390     0.6814    30.4708 </r>
       <r>    19.0791     0.4894    30.4904 </r>
       <r>    19.1191     0.3363    30.5039 </r>
       <r>    19.1592     0.2235    30.5128 </r>
       <r>    19.1992     0.1451    30.5186 </r>
       <r>    19.2392     0.0924    30.5223 </r>
       <r>    19.2793     0.0577    30.5246 </r>
       <r>    19.3193     0.0351    30.5261 </r>
       <r>    19.3594     0.0205    30.5269 </r>
       <r>    19.3994     0.0115    30.5273 </r>
       <r>    19.4394     0.0063    30.5276 </r>
       <r>    19.4795     0.0038    30.5277 </r>
       <r>    19.5195     0.0036    30.5279 </r>
       <r>    19.5596     0.0061    30.5281 </r>
       <r>    19.5996     0.0126    30.5286 </r>
       <r>    19.6396     0.0257    30.5297 </r>
       <r>    19.6797     0.0493    30.5316 </r>
       <r>    19.7197     0.0879    30.5352 </r>
       <r>    19.7598     0.1457    30.5410 </r>
       <r>    19.7998     0.2255    30.5500 </r>
       <r>    19.8398     0.3269    30.5631 </r>
       <r>    19.8799     0.4467    30.5810 </r>
       <r>    19.9199     0.5797    30.6042 </r>
       <r>    19.9600     0.7218    30.6331 </r>
       <r>    20.0000     0.8723    30.6680 </r>
      </set>
     </set>
    </array>
   </total>
  </dos>
 </calculation>
 <structure name="finalpos" >
  <crystal>
   <varray name="basis" >
    <v>       4.49823655       0.00000000       0.00000000 </v>
    <v>       0.00000000       4.49823655       0.00000000 </v>
    <v>       0.00000000       0.00000000       2.98101374 </v>
   </varray>
   <i name="volume">     60.31822556 </i>
   <varray name="rec_basis" >
    <v>       0.22230934       0.00000000       0.00000000 </v>
    <v>       0.00000000       0.22230934       0.00000000 </v>
    <v>       0.00000000       0.00000000       0.33545635 </v>
   </varray>
  </crystal>
  <varray name="positions" >
   <v>       0.00000000       0.00000000       0.00000000 </v>
   <v>       0.50000000       0.50000000       0.50000000 </v>
   <v>       0.30489193       0.30489193       0.00000000 </v>
   <v>       0.69510807       0.69510807       0.00000000 </v>
   <v>       0.19510807       0.80489193       0.50000000 </v>
   <v>       0.80489193       0.19510807       0.50000000 </v>
  </varray>
 </structure>
</modeling>
